unknown system                          
   1.00000000000000     
     4.313329    0.000000    0.000000
     0.000000    4.313329    0.000000
     0.000000    0.000000    4.313329
   Cu   O 
     4     2
Direct
  0.250000  0.250000  0.250000
  0.750000  0.750000  0.250000
  0.750000  0.250000  0.750000
  0.250000  0.750000  0.750000
  0.000000  0.000000  0.000000
  0.500000  0.500000  0.500000
 
   56   56   56
  646.49      635.46      601.31      542.89      463.08      370.89      279.41      200.59      140.66      98.893    
  70.059      50.141      36.702      27.623      21.371      16.972      13.844      11.623      10.049      8.9218    
  8.0957      7.4701      6.9821      6.5994      6.3090      6.1012      5.9627      5.8818      5.8549      5.8818    
  5.9627      6.1012      6.3090      6.5994      6.9821      7.4701      8.0957      8.9218      10.049      11.623    
  13.844      16.972      21.371      27.623      36.702      50.141      70.059      98.893      140.66      200.59    
  279.41      370.89      463.08      542.89      601.31      635.46      635.46      624.24      589.74      531.31    
  452.26      361.71      272.42      195.82      137.70      97.130      68.980      49.505      36.340      27.423    
  21.268      16.928      13.838      11.641      10.082      8.9630      8.1400      7.5143      7.0246      6.6395    
  6.3463      6.1355      5.9944      5.9119      5.8844      5.9119      5.9944      6.1355      6.3463      6.6395    
  7.0246      7.5143      8.1400      8.9630      10.082      11.641      13.838      16.928      21.268      27.423    
  36.340      49.505      68.980      97.130      137.70      195.82      272.42      361.71      452.26      531.31    
  589.74      624.24      601.31      589.74      554.74      496.96      420.74      335.33      252.52      182.33    
  129.34      92.105      65.888      47.679      35.296      26.847      20.972      16.806      13.827      11.701    
  10.184      9.0873      8.2726      7.6462      7.1511      6.7586      6.4569      6.2375      6.0888      6.0015    
  5.9723      6.0015      6.0888      6.2375      6.4569      6.7586      7.1511      7.6462      8.2726      9.0873    
  10.184      11.701      13.827      16.806      20.972      26.847      35.296      47.679      65.888      92.105    
  129.34      182.33      252.52      335.33      420.74      496.96      554.74      589.74      542.89      531.31    
  496.96      441.93      371.68      295.22      222.82      162.41      116.96      84.505      61.188      44.892    
  33.695      25.961      20.521      16.629      13.826      11.811      10.361      9.2973      8.4934      7.8639    
  7.3587      6.9533      6.6376      6.4040      6.2433      6.1483      6.1166      6.1483      6.2433      6.4040    
  6.6376      6.9533      7.3587      7.8639      8.4934      9.2973      10.361      11.811      13.826      16.629    
  20.521      25.961      33.695      44.892      61.188      84.505      116.96      162.41      222.82      295.22    
  371.68      441.93      496.96      531.31      463.08      452.26      420.74      371.68      311.05      247.03    
  187.87      139.17      102.37      75.255      55.450      41.467      31.715      24.866      19.974      16.432    
  13.858      11.988      10.620      9.5963      8.8022      8.1646      7.6429      7.2183      6.8827      6.6301    
  6.4536      6.3484      6.3133      6.3484      6.4536      6.6301      6.8827      7.2183      7.6429      8.1646    
  8.8022      9.5963      10.620      11.988      13.858      16.432      19.974      24.866      31.715      41.467    
  55.450      75.255      102.37      139.17      187.87      247.03      311.05      371.68      420.74      452.26    
  370.89      361.71      335.33      295.22      247.03      197.47      152.53      115.70      87.199      65.382    
  49.287      37.753      29.551      23.672      19.398      16.262      13.953      12.249      10.973      9.9878    
  9.1976      8.5440      7.9977      7.5465      7.1848      6.9084      6.7127      6.5954      6.5561      6.5954    
  6.7127      6.9084      7.1848      7.5465      7.9977      8.5440      9.1976      9.9878      10.973      12.249    
  13.953      16.262      19.398      23.672      29.551      37.753      49.287      65.382      87.199      115.70    
  152.53      197.47      247.03      295.22      335.33      361.71      279.41      272.42      252.52      222.82    
  187.87      152.53      120.69      94.121      72.590      55.796      43.242      34.065      27.387      22.490    
  18.864      16.160      14.138      12.609      11.425      10.472      9.6754      8.9953      8.4146      7.9282    
  7.5338      7.2289      7.0110      6.8797      6.8358      6.8797      7.0110      7.2289      7.5338      7.9282    
  8.4146      8.9953      9.6754      10.472      11.425      12.609      14.138      16.160      18.864      22.490    
  27.387      34.065      43.242      55.796      72.590      94.121      120.69      152.53      187.87      222.82    
  252.52      272.42      200.59      195.82      182.33      162.41      139.17      115.70      94.121      75.236    
  59.531      47.142      37.704      30.639      25.367      21.412      18.428      16.164      14.431      13.075    
  11.974      11.041      10.226      9.5071      8.8813      8.3507      7.9168      7.5787      7.3358      7.1890    
  7.1398      7.1890      7.3358      7.5787      7.9168      8.3507      8.8813      9.5071      10.226      11.041    
  11.974      13.075      14.431      16.164      18.428      21.412      25.367      30.639      37.704      47.142    
  59.531      75.236      94.121      115.70      139.17      162.41      182.33      195.82      140.66      137.70    
  129.34      116.96      102.37      87.199      72.590      59.531      48.560      39.752      32.888      27.618    
  23.588      20.502      18.130      16.291      14.836      13.638      12.606      11.678      10.831      10.061    
  9.3803      8.7973      8.3174      7.9419      7.6715      7.5078      7.4530      7.5078      7.6715      7.9419    
  8.3174      8.7973      9.3803      10.061      10.831      11.678      12.606      13.638      14.836      16.291    
  18.130      20.502      23.588      27.618      32.888      39.752      48.560      59.531      72.590      87.199    
  102.37      116.96      129.34      137.70      98.893      97.130      92.105      84.505      75.255      65.382    
  55.796      47.142      39.752      33.695      28.861      25.062      22.098      19.790      17.982      16.536    
  15.332      14.272      13.289      12.352      11.460      10.632      9.8881      9.2465      8.7159      8.2999    
  8.0003      7.8191      7.7584      7.8191      8.0003      8.2999      8.7159      9.2465      9.8881      10.632    
  11.460      12.352      13.289      14.272      15.332      16.536      17.982      19.790      22.098      25.062    
  28.861      33.695      39.752      47.142      55.796      65.382      75.255      84.505      92.105      97.130    
  70.059      68.980      65.888      61.188      55.450      49.287      43.242      37.704      32.888      28.861    
  25.585      22.969      20.904      19.274      17.965      16.866      15.878      14.927      13.976      13.018    
  12.076      11.185      10.375      9.6726      9.0897      8.6323      8.3033      8.1047      8.0382      8.1047    
  8.3033      8.6323      9.0897      9.6726      10.375      11.185      12.076      13.018      13.976      14.927    
  15.878      16.866      17.965      19.274      20.904      22.969      25.585      28.861      32.888      37.704    
  43.242      49.287      55.450      61.188      65.888      68.980      50.141      49.505      47.679      44.892    
  41.467      37.753      34.065      30.639      27.618      25.062      22.969      21.297      19.976      18.921    
  18.035      17.225      16.410      15.543      14.608      13.625      12.633      11.680      10.809      10.048    
  9.4150      8.9186      8.5621      8.3475      8.2758      8.3475      8.5621      8.9186      9.4150      10.048    
  10.809      11.680      12.633      13.625      14.608      15.543      16.410      17.225      18.035      18.921    
  19.976      21.297      22.969      25.062      27.618      30.639      34.065      37.753      41.467      44.892    
  47.679      49.505      36.702      36.340      35.296      33.695      31.715      29.551      27.387      25.367    
  23.588      22.098      20.904      19.976      19.257      18.668      18.123      17.539      16.858      16.050    
  15.124      14.117      13.083      12.079      11.155      10.345      9.6693      9.1398      8.7604      8.5326    
  8.4566      8.5326      8.7604      9.1398      9.6693      10.345      11.155      12.079      13.083      14.117    
  15.124      16.050      16.858      17.539      18.123      18.668      19.257      19.976      20.904      22.098    
  23.588      25.367      27.387      29.551      31.715      33.695      35.296      36.340      27.623      27.423    
  26.847      25.961      24.866      23.672      22.490      21.412      20.502      19.790      19.274      18.921    
  18.668      18.438      18.150      17.734      17.149      16.385      15.466      14.445      13.384      12.346    
  11.385      10.540      9.8339      9.2808      8.8854      8.6485      8.5697      8.6485      8.8854      9.2808    
  9.8339      10.540      11.385      12.346      13.384      14.445      15.466      16.385      17.149      17.734    
  18.150      18.438      18.668      18.921      19.274      19.790      20.502      21.412      22.490      23.672    
  24.866      25.961      26.847      27.423      21.371      21.268      20.972      20.521      19.974      19.398    
  18.864      18.428      18.130      17.982      17.965      18.035      18.123      18.150      18.042      17.743    
  17.226      16.498      15.594      14.575      13.506      12.456      11.479      10.616      9.8960      9.3317    
  8.9289      8.6881      8.6081      8.6881      8.9289      9.3317      9.8960      10.616      11.479      12.456    
  13.506      14.575      15.594      16.498      17.226      17.743      18.042      18.150      18.123      18.035    
  17.965      17.982      18.130      18.428      18.864      19.398      19.974      20.521      20.972      21.268    
  16.972      16.928      16.806      16.629      16.432      16.262      16.160      16.164      16.291      16.536    
  16.866      17.225      17.539      17.734      17.743      17.522      17.057      16.364      15.487      14.488    
  13.435      12.396      11.426      10.568      9.8509      9.2889      8.8883      8.6491      8.5697      8.6491    
  8.8883      9.2889      9.8509      10.568      11.426      12.396      13.435      14.488      15.487      16.364    
  17.057      17.522      17.743      17.734      17.539      17.225      16.866      16.536      16.291      16.164    
  16.160      16.262      16.432      16.629      16.806      16.928      13.844      13.838      13.827      13.826    
  13.858      13.953      14.138      14.431      14.836      15.332      15.878      16.410      16.858      17.149    
  17.226      17.057      16.634      15.982      15.146      14.188      13.174      12.170      11.231      10.399    
  9.7020      9.1558      8.7663      8.5338      8.4566      8.5338      8.7663      9.1558      9.7020      10.399    
  11.231      12.170      13.174      14.188      15.146      15.982      16.634      17.057      17.226      17.149    
  16.858      16.410      15.878      15.332      14.836      14.431      14.138      13.953      13.858      13.826    
  13.827      13.838      11.623      11.641      11.701      11.811      11.988      12.249      12.609      13.075    
  13.638      14.272      14.927      15.543      16.050      16.385      16.498      16.364      15.982      15.378    
  14.597      13.698      12.744      11.798      10.910      10.122      9.4609      8.9418      8.5710      8.3494    
  8.2758      8.3494      8.5710      8.9418      9.4609      10.122      10.910      11.798      12.744      13.698    
  14.597      15.378      15.982      16.364      16.498      16.385      16.050      15.543      14.927      14.272    
  13.638      13.075      12.609      12.249      11.988      11.811      11.701      11.641      10.049      10.082    
  10.184      10.361      10.620      10.973      11.425      11.974      12.606      13.289      13.976      14.608    
  15.124      15.466      15.594      15.487      15.146      14.597      13.883      13.058      12.181      11.308    
  10.489      9.7595      9.1456      8.6619      8.3152      8.1074      8.0382      8.1074      8.3152      8.6619    
  9.1456      9.7595      10.489      11.308      12.181      13.058      13.883      14.597      15.146      15.487    
  15.594      15.466      15.124      14.608      13.976      13.289      12.606      11.974      11.425      10.973    
  10.620      10.361      10.184      10.082      8.9218      8.9630      9.0873      9.2973      9.5963      9.9878    
  10.472      11.041      11.678      12.352      13.018      13.625      14.117      14.445      14.575      14.488    
  14.188      13.698      13.058      12.316      11.527      10.740      9.9993      9.3376      8.7779      8.3346    
  8.0150      7.8226      7.7584      7.8226      8.0150      8.3346      8.7779      9.3376      9.9993      10.740    
  11.527      12.316      13.058      13.698      14.188      14.488      14.575      14.445      14.117      13.625    
  13.018      12.352      11.678      11.041      10.472      9.9878      9.5963      9.2973      9.0873      8.9630    
  8.0957      8.1400      8.2726      8.4934      8.8022      9.1976      9.6754      10.226      10.831      11.460    
  12.076      12.633      13.083      13.384      13.506      13.435      13.174      12.744      12.181      11.527    
  10.830      10.133      9.4751      8.8842      8.3813      7.9800      7.6886      7.5121      7.4530      7.5121    
  7.6886      7.9800      8.3813      8.8842      9.4751      10.133      10.830      11.527      12.181      12.744    
  13.174      13.435      13.506      13.384      13.083      12.633      12.076      11.460      10.831      10.226    
  9.6754      9.1976      8.8022      8.4934      8.2726      8.1400      7.4701      7.5143      7.6462      7.8639    
  8.1646      8.5440      8.9953      9.5071      10.061      10.632      11.185      11.680      12.079      12.346    
  12.456      12.396      12.170      11.798      11.308      10.740      10.133      9.5251      8.9476      8.4258    
  7.9783      7.6181      7.3545      7.1938      7.1398      7.1938      7.3545      7.6181      7.9783      8.4258    
  8.9476      9.5251      10.133      10.740      11.308      11.798      12.170      12.396      12.456      12.346    
  12.079      11.680      11.185      10.632      10.061      9.5071      8.9953      8.5440      8.1646      7.8639    
  7.6462      7.5143      6.9821      7.0246      7.1511      7.3587      7.6429      7.9977      8.4146      8.8813    
  9.3803      9.8881      10.375      10.809      11.155      11.385      11.479      11.426      11.231      10.910    
  10.489      9.9993      9.4751      8.9476      8.4439      7.9855      7.5891      7.2674      7.0302      6.8848    
  6.8358      6.8848      7.0302      7.2674      7.5891      7.9855      8.4439      8.9476      9.4751      9.9993    
  10.489      10.910      11.231      11.426      11.479      11.385      11.155      10.809      10.375      9.8881    
  9.3803      8.8813      8.4146      7.9977      7.6429      7.3587      7.1511      7.0246      6.5994      6.6395    
  6.7586      6.9533      7.2183      7.5465      7.9282      8.3507      8.7973      9.2465      9.6726      10.048    
  10.345      10.540      10.616      10.568      10.399      10.122      9.7595      9.3376      8.8842      8.4258    
  7.9855      7.5821      7.2308      6.9439      6.7312      6.6003      6.5561      6.6003      6.7312      6.9439    
  7.2308      7.5821      7.9855      8.4258      8.8842      9.3376      9.7595      10.122      10.399      10.568    
  10.616      10.540      10.345      10.048      9.6726      9.2465      8.7973      8.3507      7.9282      7.5465    
  7.2183      6.9533      6.7586      6.6395      6.3090      6.3463      6.4569      6.6376      6.8827      7.1848    
  7.5338      7.9168      8.3174      8.7159      9.0897      9.4150      9.6693      9.8339      9.8960      9.8509    
  9.7020      9.4609      9.1456      8.7779      8.3813      7.9783      7.5891      7.2308      6.9175      6.6609    
  6.4703      6.3530      6.3133      6.3530      6.4703      6.6609      6.9175      7.2308      7.5891      7.9783    
  8.3813      8.7779      9.1456      9.4609      9.7020      9.8509      9.8960      9.8339      9.6693      9.4150    
  9.0897      8.7159      8.3174      7.9168      7.5338      7.1848      6.8827      6.6376      6.4569      6.3463    
  6.1012      6.1355      6.2375      6.4040      6.6301      6.9084      7.2289      7.5787      7.9419      8.2999    
  8.6323      8.9186      9.1398      9.2808      9.3317      9.2889      9.1558      8.9418      8.6619      8.3346    
  7.9800      7.6181      7.2674      6.9439      6.6609      6.4294      6.2577      6.1522      6.1166      6.1522    
  6.2577      6.4294      6.6609      6.9439      7.2674      7.6181      7.9800      8.3346      8.6619      8.9418    
  9.1558      9.2889      9.3317      9.2808      9.1398      8.9186      8.6323      8.2999      7.9419      7.5787    
  7.2289      6.9084      6.6301      6.4040      6.2375      6.1355      5.9627      5.9944      6.0888      6.2433    
  6.4536      6.7127      7.0110      7.3358      7.6715      8.0003      8.3033      8.5621      8.7604      8.8854    
  8.9289      8.8883      8.7663      8.5710      8.3152      8.0150      7.6886      7.3545      7.0302      6.7312    
  6.4703      6.2577      6.1008      6.0047      5.9723      6.0047      6.1008      6.2577      6.4703      6.7312    
  7.0302      7.3545      7.6886      8.0150      8.3152      8.5710      8.7663      8.8883      8.9289      8.8854    
  8.7604      8.5621      8.3033      8.0003      7.6715      7.3358      7.0110      6.7127      6.4536      6.2433    
  6.0888      5.9944      5.8818      5.9119      6.0015      6.1483      6.3484      6.5954      6.8797      7.1890    
  7.5078      7.8191      8.1047      8.3475      8.5326      8.6485      8.6881      8.6491      8.5338      8.3494    
  8.1074      7.8226      7.5121      7.1938      6.8848      6.6003      6.3530      6.1522      6.0047      5.9147    
  5.8844      5.9147      6.0047      6.1522      6.3530      6.6003      6.8848      7.1938      7.5121      7.8226    
  8.1074      8.3494      8.5338      8.6491      8.6881      8.6485      8.5326      8.3475      8.1047      7.8191    
  7.5078      7.1890      6.8797      6.5954      6.3484      6.1483      6.0015      5.9119      5.8549      5.8844    
  5.9723      6.1166      6.3133      6.5561      6.8358      7.1398      7.4530      7.7584      8.0382      8.2758    
  8.4566      8.5697      8.6081      8.5697      8.4566      8.2758      8.0382      7.7584      7.4530      7.1398    
  6.8358      6.5561      6.3133      6.1166      5.9723      5.8844      5.8549      5.8844      5.9723      6.1166    
  6.3133      6.5561      6.8358      7.1398      7.4530      7.7584      8.0382      8.2758      8.4566      8.5697    
  8.6081      8.5697      8.4566      8.2758      8.0382      7.7584      7.4530      7.1398      6.8358      6.5561    
  6.3133      6.1166      5.9723      5.8844      5.8818      5.9119      6.0015      6.1483      6.3484      6.5954    
  6.8797      7.1890      7.5078      7.8191      8.1047      8.3475      8.5326      8.6485      8.6881      8.6491    
  8.5338      8.3494      8.1074      7.8226      7.5121      7.1938      6.8848      6.6003      6.3530      6.1522    
  6.0047      5.9147      5.8844      5.9147      6.0047      6.1522      6.3530      6.6003      6.8848      7.1938    
  7.5121      7.8226      8.1074      8.3494      8.5338      8.6491      8.6881      8.6485      8.5326      8.3475    
  8.1047      7.8191      7.5078      7.1890      6.8797      6.5954      6.3484      6.1483      6.0015      5.9119    
  5.9627      5.9944      6.0888      6.2433      6.4536      6.7127      7.0110      7.3358      7.6715      8.0003    
  8.3033      8.5621      8.7604      8.8854      8.9289      8.8883      8.7663      8.5710      8.3152      8.0150    
  7.6886      7.3545      7.0302      6.7312      6.4703      6.2577      6.1008      6.0047      5.9723      6.0047    
  6.1008      6.2577      6.4703      6.7312      7.0302      7.3545      7.6886      8.0150      8.3152      8.5710    
  8.7663      8.8883      8.9289      8.8854      8.7604      8.5621      8.3033      8.0003      7.6715      7.3358    
  7.0110      6.7127      6.4536      6.2433      6.0888      5.9944      6.1012      6.1355      6.2375      6.4040    
  6.6301      6.9084      7.2289      7.5787      7.9419      8.2999      8.6323      8.9186      9.1398      9.2808    
  9.3317      9.2889      9.1558      8.9418      8.6619      8.3346      7.9800      7.6181      7.2674      6.9439    
  6.6609      6.4294      6.2577      6.1522      6.1166      6.1522      6.2577      6.4294      6.6609      6.9439    
  7.2674      7.6181      7.9800      8.3346      8.6619      8.9418      9.1558      9.2889      9.3317      9.2808    
  9.1398      8.9186      8.6323      8.2999      7.9419      7.5787      7.2289      6.9084      6.6301      6.4040    
  6.2375      6.1355      6.3090      6.3463      6.4569      6.6376      6.8827      7.1848      7.5338      7.9168    
  8.3174      8.7159      9.0897      9.4150      9.6693      9.8339      9.8960      9.8509      9.7020      9.4609    
  9.1456      8.7779      8.3813      7.9783      7.5891      7.2308      6.9175      6.6609      6.4703      6.3530    
  6.3133      6.3530      6.4703      6.6609      6.9175      7.2308      7.5891      7.9783      8.3813      8.7779    
  9.1456      9.4609      9.7020      9.8509      9.8960      9.8339      9.6693      9.4150      9.0897      8.7159    
  8.3174      7.9168      7.5338      7.1848      6.8827      6.6376      6.4569      6.3463      6.5994      6.6395    
  6.7586      6.9533      7.2183      7.5465      7.9282      8.3507      8.7973      9.2465      9.6726      10.048    
  10.345      10.540      10.616      10.568      10.399      10.122      9.7595      9.3376      8.8842      8.4258    
  7.9855      7.5821      7.2308      6.9439      6.7312      6.6003      6.5561      6.6003      6.7312      6.9439    
  7.2308      7.5821      7.9855      8.4258      8.8842      9.3376      9.7595      10.122      10.399      10.568    
  10.616      10.540      10.345      10.048      9.6726      9.2465      8.7973      8.3507      7.9282      7.5465    
  7.2183      6.9533      6.7586      6.6395      6.9821      7.0246      7.1511      7.3587      7.6429      7.9977    
  8.4146      8.8813      9.3803      9.8881      10.375      10.809      11.155      11.385      11.479      11.426    
  11.231      10.910      10.489      9.9993      9.4751      8.9476      8.4439      7.9855      7.5891      7.2674    
  7.0302      6.8848      6.8358      6.8848      7.0302      7.2674      7.5891      7.9855      8.4439      8.9476    
  9.4751      9.9993      10.489      10.910      11.231      11.426      11.479      11.385      11.155      10.809    
  10.375      9.8881      9.3803      8.8813      8.4146      7.9977      7.6429      7.3587      7.1511      7.0246    
  7.4701      7.5143      7.6462      7.8639      8.1646      8.5440      8.9953      9.5071      10.061      10.632    
  11.185      11.680      12.079      12.346      12.456      12.396      12.170      11.798      11.308      10.740    
  10.133      9.5251      8.9476      8.4258      7.9783      7.6181      7.3545      7.1938      7.1398      7.1938    
  7.3545      7.6181      7.9783      8.4258      8.9476      9.5251      10.133      10.740      11.308      11.798    
  12.170      12.396      12.456      12.346      12.079      11.680      11.185      10.632      10.061      9.5071    
  8.9953      8.5440      8.1646      7.8639      7.6462      7.5143      8.0957      8.1400      8.2726      8.4934    
  8.8022      9.1976      9.6754      10.226      10.831      11.460      12.076      12.633      13.083      13.384    
  13.506      13.435      13.174      12.744      12.181      11.527      10.830      10.133      9.4751      8.8842    
  8.3813      7.9800      7.6886      7.5121      7.4530      7.5121      7.6886      7.9800      8.3813      8.8842    
  9.4751      10.133      10.830      11.527      12.181      12.744      13.174      13.435      13.506      13.384    
  13.083      12.633      12.076      11.460      10.831      10.226      9.6754      9.1976      8.8022      8.4934    
  8.2726      8.1400      8.9218      8.9630      9.0873      9.2973      9.5963      9.9878      10.472      11.041    
  11.678      12.352      13.018      13.625      14.117      14.445      14.575      14.488      14.188      13.698    
  13.058      12.316      11.527      10.740      9.9993      9.3376      8.7779      8.3346      8.0150      7.8226    
  7.7584      7.8226      8.0150      8.3346      8.7779      9.3376      9.9993      10.740      11.527      12.316    
  13.058      13.698      14.188      14.488      14.575      14.445      14.117      13.625      13.018      12.352    
  11.678      11.041      10.472      9.9878      9.5963      9.2973      9.0873      8.9630      10.049      10.082    
  10.184      10.361      10.620      10.973      11.425      11.974      12.606      13.289      13.976      14.608    
  15.124      15.466      15.594      15.487      15.146      14.597      13.883      13.058      12.181      11.308    
  10.489      9.7595      9.1456      8.6619      8.3152      8.1074      8.0382      8.1074      8.3152      8.6619    
  9.1456      9.7595      10.489      11.308      12.181      13.058      13.883      14.597      15.146      15.487    
  15.594      15.466      15.124      14.608      13.976      13.289      12.606      11.974      11.425      10.973    
  10.620      10.361      10.184      10.082      11.623      11.641      11.701      11.811      11.988      12.249    
  12.609      13.075      13.638      14.272      14.927      15.543      16.050      16.385      16.498      16.364    
  15.982      15.378      14.597      13.698      12.744      11.798      10.910      10.122      9.4609      8.9418    
  8.5710      8.3494      8.2758      8.3494      8.5710      8.9418      9.4609      10.122      10.910      11.798    
  12.744      13.698      14.597      15.378      15.982      16.364      16.498      16.385      16.050      15.543    
  14.927      14.272      13.638      13.075      12.609      12.249      11.988      11.811      11.701      11.641    
  13.844      13.838      13.827      13.826      13.858      13.953      14.138      14.431      14.836      15.332    
  15.878      16.410      16.858      17.149      17.226      17.057      16.634      15.982      15.146      14.188    
  13.174      12.170      11.231      10.399      9.7020      9.1558      8.7663      8.5338      8.4566      8.5338    
  8.7663      9.1558      9.7020      10.399      11.231      12.170      13.174      14.188      15.146      15.982    
  16.634      17.057      17.226      17.149      16.858      16.410      15.878      15.332      14.836      14.431    
  14.138      13.953      13.858      13.826      13.827      13.838      16.972      16.928      16.806      16.629    
  16.432      16.262      16.160      16.164      16.291      16.536      16.866      17.225      17.539      17.734    
  17.743      17.522      17.057      16.364      15.487      14.488      13.435      12.396      11.426      10.568    
  9.8509      9.2889      8.8883      8.6491      8.5697      8.6491      8.8883      9.2889      9.8509      10.568    
  11.426      12.396      13.435      14.488      15.487      16.364      17.057      17.522      17.743      17.734    
  17.539      17.225      16.866      16.536      16.291      16.164      16.160      16.262      16.432      16.629    
  16.806      16.928      21.371      21.268      20.972      20.521      19.974      19.398      18.864      18.428    
  18.130      17.982      17.965      18.035      18.123      18.150      18.042      17.743      17.226      16.498    
  15.594      14.575      13.506      12.456      11.479      10.616      9.8960      9.3317      8.9289      8.6881    
  8.6081      8.6881      8.9289      9.3317      9.8960      10.616      11.479      12.456      13.506      14.575    
  15.594      16.498      17.226      17.743      18.042      18.150      18.123      18.035      17.965      17.982    
  18.130      18.428      18.864      19.398      19.974      20.521      20.972      21.268      27.623      27.423    
  26.847      25.961      24.866      23.672      22.490      21.412      20.502      19.790      19.274      18.921    
  18.668      18.438      18.150      17.734      17.149      16.385      15.466      14.445      13.384      12.346    
  11.385      10.540      9.8339      9.2808      8.8854      8.6485      8.5697      8.6485      8.8854      9.2808    