unknown system                          
   1.00000000000000     
     4.313329    0.000000    0.000000
     0.000000    4.313329    0.000000
     0.000000    0.000000    4.313329
   Cu   O 
     4     2
Direct
  0.250000  0.250000  0.250000
  0.750000  0.750000  0.250000
  0.750000  0.250000  0.750000
  0.250000  0.750000  0.750000
  0.000000  0.000000  0.000000
  0.500000  0.500000  0.500000
 
   56   56   56
 0.64648809607E+03 0.63545679111E+03 0.60130808882E+03 0.54289478661E+03 0.46307698512E+03
 0.37089038605E+03 0.27941018839E+03 0.20059038379E+03 0.14066143509E+03 0.98893277354E+02
 0.70058906124E+02 0.50141162736E+02 0.36702357237E+02 0.27623085737E+02 0.21371287474E+02
 0.16972029325E+02 0.13843720661E+02 0.11622706676E+02 0.10048576176E+02 0.89217799598E+01
 0.80957375821E+01 0.74700971493E+01 0.69820741946E+01 0.65994218815E+01 0.63090250715E+01
 0.61012345343E+01 0.59626552606E+01 0.58818473220E+01 0.58549041502E+01 0.58818473220E+01
 0.59626552606E+01 0.61012345343E+01 0.63090250715E+01 0.65994218815E+01 0.69820741946E+01
 0.74700971493E+01 0.80957375821E+01 0.89217799598E+01 0.10048576176E+02 0.11622706676E+02
 0.13843720661E+02 0.16972029325E+02 0.21371287474E+02 0.27623085737E+02 0.36702357237E+02
 0.50141162736E+02 0.70058906124E+02 0.98893277354E+02 0.14066143509E+03 0.20059038379E+03
 0.27941018839E+03 0.37089038605E+03 0.46307698512E+03 0.54289478661E+03 0.60130808882E+03
 0.63545679111E+03 0.63545679111E+03 0.62423547344E+03 0.58973547972E+03 0.53131195034E+03
 0.45226372616E+03 0.36171151612E+03 0.27241712471E+03 0.19581862503E+03 0.13770053269E+03
 0.97130301555E+02 0.68979788783E+02 0.49505033391E+02 0.36339622372E+02 0.27422976541E+02
 0.21268054877E+02 0.16928476913E+02 0.13838219651E+02 0.11641420674E+02 0.10081922487E+02
 0.89629566580E+01 0.81399649552E+01 0.75142807575E+01 0.70245695100E+01 0.66394993985E+01
 0.63462875380E+01 0.61355378854E+01 0.59943840810E+01 0.59119147832E+01 0.58844177306E+01
 0.59119147832E+01 0.59943840810E+01 0.61355378854E+01 0.63462875380E+01 0.66394993985E+01
 0.70245695100E+01 0.75142807575E+01 0.81399649552E+01 0.89629566580E+01 0.10081922487E+02
 0.11641420674E+02 0.13838219651E+02 0.16928476913E+02 0.21268054877E+02 0.27422976541E+02
 0.36339622372E+02 0.49505033391E+02 0.68979788783E+02 0.97130301555E+02 0.13770053269E+03
 0.19581862503E+03 0.27241712471E+03 0.36171151612E+03 0.45226372616E+03 0.53131195034E+03
 0.58973547972E+03 0.62423547344E+03 0.60130808882E+03 0.58973547972E+03 0.55474243485E+03
 0.49695674600E+03 0.42074262256E+03 0.33532521780E+03 0.25252228596E+03 0.18233106420E+03
 0.12933727718E+03 0.92104906140E+02 0.65888256858E+02 0.47679184717E+02 0.35295950461E+02
 0.26846590304E+02 0.20971853922E+02 0.16806053688E+02 0.13827052141E+02 0.11701009327E+02
 0.10183962457E+02 0.90873115263E+01 0.82725776550E+01 0.76461712707E+01 0.71510522957E+01
 0.67585709464E+01 0.64569290745E+01 0.62374597355E+01 0.60887771182E+01 0.60014523307E+01
 0.59723329795E+01 0.60014523307E+01 0.60887771182E+01 0.62374597355E+01 0.64569290745E+01
 0.67585709464E+01 0.71510522957E+01 0.76461712707E+01 0.82725776550E+01 0.90873115263E+01
 0.10183962457E+02 0.11701009327E+02 0.13827052141E+02 0.16806053688E+02 0.20971853922E+02
 0.26846590304E+02 0.35295950461E+02 0.47679184717E+02 0.65888256858E+02 0.92104906140E+02
 0.12933727718E+03 0.18233106420E+03 0.25252228596E+03 0.33532521780E+03 0.42074262256E+03
 0.49695674600E+03 0.55474243485E+03 0.58973547972E+03 0.54289478661E+03 0.53131195034E+03
 0.49695674600E+03 0.44192825693E+03 0.37168148516E+03 0.29522393475E+03 0.22282420964E+03
 0.16240631316E+03 0.11696125533E+03 0.84504529136E+02 0.61188130411E+02 0.44892067348E+02
 0.33695270774E+02 0.25961275490E+02 0.20521193886E+02 0.16628545364E+02 0.13825723533E+02
 0.11811489329E+02 0.10360504133E+02 0.92972569134E+01 0.84934232891E+01 0.78639146325E+01
 0.73586600901E+01 0.69532791531E+01 0.66375771706E+01 0.64040123324E+01 0.62433486865E+01
 0.61483120837E+01 0.61166064226E+01 0.61483120837E+01 0.62433486865E+01 0.64040123324E+01
 0.66375771706E+01 0.69532791531E+01 0.73586600901E+01 0.78639146325E+01 0.84934232891E+01
 0.92972569134E+01 0.10360504133E+02 0.11811489329E+02 0.13825723533E+02 0.16628545364E+02
 0.20521193886E+02 0.25961275490E+02 0.33695270774E+02 0.44892067348E+02 0.61188130411E+02
 0.84504529136E+02 0.11696125533E+03 0.16240631316E+03 0.22282420964E+03 0.29522393475E+03
 0.37168148516E+03 0.44192825693E+03 0.49695674600E+03 0.53131195034E+03 0.46307698512E+03
 0.45226372616E+03 0.42074262256E+03 0.37168148516E+03 0.31105000439E+03 0.24703061410E+03
 0.18786501325E+03 0.13917057742E+03 0.10237457887E+03 0.75254970789E+02 0.55449748571E+02
 0.41466652877E+02 0.31714924086E+02 0.24865529415E+02 0.19973901449E+02 0.16432396724E+02
 0.13858130043E+02 0.11988179525E+02 0.10620289928E+02 0.95963337317E+01 0.88021791991E+01
 0.81646181147E+01 0.76429276359E+01 0.72183120414E+01 0.68827489337E+01 0.66301169420E+01
 0.64536271209E+01 0.63484490925E+01 0.63133280415E+01 0.63484490925E+01 0.64536271209E+01
 0.66301169420E+01 0.68827489337E+01 0.72183120414E+01 0.76429276359E+01 0.81646181147E+01
 0.88021791991E+01 0.95963337317E+01 0.10620289928E+02 0.11988179525E+02 0.13858130043E+02
 0.16432396724E+02 0.19973901449E+02 0.24865529415E+02 0.31714924086E+02 0.41466652877E+02
 0.55449748571E+02 0.75254970789E+02 0.10237457887E+03 0.13917057742E+03 0.18786501325E+03
 0.24703061410E+03 0.31105000439E+03 0.37168148516E+03 0.42074262256E+03 0.45226372616E+03
 0.37089038605E+03 0.36171151612E+03 0.33532521780E+03 0.29522393475E+03 0.24703061410E+03
 0.19746904995E+03 0.15253418201E+03 0.11569973551E+03 0.87199411720E+02 0.65382400712E+02
 0.49287316338E+02 0.37753007188E+02 0.29551293171E+02 0.23672096851E+02 0.19398471057E+02
 0.16261584977E+02 0.13952908052E+02 0.12248843813E+02 0.10972828956E+02 0.99877649541E+01
 0.91975603998E+01 0.85440269111E+01 0.79977321959E+01 0.75464502792E+01 0.71848389697E+01
 0.69084029932E+01 0.67127438875E+01 0.65953796061E+01 0.65561413745E+01 0.65953796061E+01
 0.67127438875E+01 0.69084029932E+01 0.71848389697E+01 0.75464502792E+01 0.79977321959E+01
 0.85440269111E+01 0.91975603998E+01 0.99877649541E+01 0.10972828956E+02 0.12248843813E+02
 0.13952908052E+02 0.16261584977E+02 0.19398471057E+02 0.23672096851E+02 0.29551293171E+02
 0.37753007188E+02 0.49287316338E+02 0.65382400712E+02 0.87199411720E+02 0.11569973551E+03
 0.15253418201E+03 0.19746904995E+03 0.24703061410E+03 0.29522393475E+03 0.33532521780E+03
 0.36171151612E+03 0.27941018839E+03 0.27241712471E+03 0.25252228596E+03 0.22282420964E+03
 0.18786501325E+03 0.15253418201E+03 0.12069112525E+03 0.94120744404E+02 0.72589607784E+02
 0.55796254654E+02 0.43241938611E+02 0.34065157231E+02 0.27386873257E+02 0.22490476688E+02
 0.18863682806E+02 0.16160296965E+02 0.14137577058E+02 0.12608857982E+02 0.11424562414E+02
 0.10471640021E+02 0.96754198220E+01 0.89953270060E+01 0.84145818966E+01 0.79281592655E+01
 0.75338379748E+01 0.72288986008E+01 0.70110307784E+01 0.68797102735E+01 0.68357526617E+01
 0.68797102735E+01 0.70110307784E+01 0.72288986008E+01 0.75338379748E+01 0.79281592655E+01
 0.84145818966E+01 0.89953270060E+01 0.96754198220E+01 0.10471640021E+02 0.11424562414E+02
 0.12608857982E+02 0.14137577058E+02 0.16160296965E+02 0.18863682806E+02 0.22490476688E+02
 0.27386873257E+02 0.34065157231E+02 0.43241938611E+02 0.55796254654E+02 0.72589607784E+02
 0.94120744404E+02 0.12069112525E+03 0.15253418201E+03 0.18786501325E+03 0.22282420964E+03
 0.25252228596E+03 0.27241712471E+03 0.20059038379E+03 0.19581862503E+03 0.18233106420E+03
 0.16240631316E+03 0.13917057742E+03 0.11569973551E+03 0.94120744404E+02 0.75235945048E+02
 0.59531300787E+02 0.47141636199E+02 0.37703688447E+02 0.30638950941E+02 0.25366739696E+02
 0.21412347468E+02 0.18427966730E+02 0.16164130371E+02 0.14430988306E+02 0.13074864448E+02
 0.11973767246E+02 0.11041025284E+02 0.10225908586E+02 0.95071443760E+01 0.88812646485E+01
 0.83507320727E+01 0.79168182059E+01 0.75787139272E+01 0.73357979331E+01 0.71889579330E+01
 0.71397634640E+01 0.71889579330E+01 0.73357979331E+01 0.75787139272E+01 0.79168182059E+01
 0.83507320727E+01 0.88812646485E+01 0.95071443760E+01 0.10225908586E+02 0.11041025284E+02
 0.11973767246E+02 0.13074864448E+02 0.14430988306E+02 0.16164130371E+02 0.18427966730E+02
 0.21412347468E+02 0.25366739696E+02 0.30638950941E+02 0.37703688447E+02 0.47141636199E+02
 0.59531300787E+02 0.75235945048E+02 0.94120744404E+02 0.11569973551E+03 0.13917057742E+03
 0.16240631316E+03 0.18233106420E+03 0.19581862503E+03 0.14066143509E+03 0.13770053269E+03
 0.12933727718E+03 0.11696125533E+03 0.10237457887E+03 0.87199411720E+02 0.72589607784E+02
 0.59531300787E+02 0.48559755397E+02 0.39752449299E+02 0.32888251293E+02 0.27617778920E+02
 0.23587682065E+02 0.20501742211E+02 0.18129985008E+02 0.16291332904E+02 0.14835644247E+02
 0.13638412419E+02 0.12605517160E+02 0.11678080697E+02 0.10830534688E+02 0.10061372563E+02
 0.93803274932E+01 0.87973298739E+01 0.83174462019E+01 0.79419269621E+01 0.76714781299E+01
 0.75078357739E+01 0.74529999325E+01 0.75078357739E+01 0.76714781299E+01 0.79419269621E+01
 0.83174462019E+01 0.87973298739E+01 0.93803274932E+01 0.10061372563E+02 0.10830534688E+02
 0.11678080697E+02 0.12605517160E+02 0.13638412419E+02 0.14835644247E+02 0.16291332904E+02
 0.18129985008E+02 0.20501742211E+02 0.23587682065E+02 0.27617778920E+02 0.32888251293E+02
 0.39752449299E+02 0.48559755397E+02 0.59531300787E+02 0.72589607784E+02 0.87199411720E+02
 0.10237457887E+03 0.11696125533E+03 0.12933727718E+03 0.13770053269E+03 0.98893277354E+02
 0.97130301555E+02 0.92104906140E+02 0.84504529136E+02 0.75254970789E+02 0.65382400712E+02
 0.55796254654E+02 0.47141636199E+02 0.39752449299E+02 0.33695019423E+02 0.28860817204E+02
 0.25061792942E+02 0.22098136674E+02 0.19789986109E+02 0.17981756682E+02 0.16536113987E+02
 0.15332127989E+02 0.14271703994E+02 0.13288546140E+02 0.12351712402E+02 0.11460356062E+02
 0.10631809603E+02 0.98881473478E+01 0.92464884325E+01 0.87159197279E+01 0.82999191693E+01
 0.80002707204E+01 0.78190723928E+01 0.77583843030E+01 0.78190723928E+01 0.80002707204E+01
 0.82999191693E+01 0.87159197279E+01 0.92464884325E+01 0.98881473478E+01 0.10631809603E+02
 0.11460356062E+02 0.12351712402E+02 0.13288546140E+02 0.14271703994E+02 0.15332127989E+02
 0.16536113987E+02 0.17981756682E+02 0.19789986109E+02 0.22098136674E+02 0.25061792942E+02
 0.28860817204E+02 0.33695019423E+02 0.39752449299E+02 0.47141636199E+02 0.55796254654E+02
 0.65382400712E+02 0.75254970789E+02 0.84504529136E+02 0.92104906140E+02 0.97130301555E+02
 0.70058906124E+02 0.68979788783E+02 0.65888256858E+02 0.61188130411E+02 0.55449748571E+02
 0.49287316338E+02 0.43241938611E+02 0.37703688447E+02 0.32888251293E+02 0.28860817204E+02
 0.25584526264E+02 0.22969062068E+02 0.20904040331E+02 0.19274489226E+02 0.17965489954E+02
 0.16866008215E+02 0.15877741614E+02 0.14927351089E+02 0.13975629161E+02 0.13018103245E+02
 0.12076424262E+02 0.11184521285E+02 0.10375319110E+02 0.96726288895E+01 0.90896778025E+01
 0.86323247502E+01 0.83032968026E+01 0.81046835706E+01 0.80382396496E+01 0.81046835706E+01
 0.83032968026E+01 0.86323247502E+01 0.90896778025E+01 0.96726288895E+01 0.10375319110E+02
 0.11184521285E+02 0.12076424262E+02 0.13018103245E+02 0.13975629161E+02 0.14927351089E+02
 0.15877741614E+02 0.16866008215E+02 0.17965489954E+02 0.19274489226E+02 0.20904040331E+02
 0.22969062068E+02 0.25584526264E+02 0.28860817204E+02 0.32888251293E+02 0.37703688447E+02
 0.43241938611E+02 0.49287316338E+02 0.55449748571E+02 0.61188130411E+02 0.65888256858E+02
 0.68979788783E+02 0.50141162736E+02 0.49505033391E+02 0.47679184717E+02 0.44892067348E+02
 0.41466652877E+02 0.37753007188E+02 0.34065157231E+02 0.30638950941E+02 0.27617778920E+02
 0.25061792942E+02 0.22969062068E+02 0.21296789402E+02 0.19976080417E+02 0.18920758931E+02
 0.18035061641E+02 0.17224560301E+02 0.16410461532E+02 0.15542979287E+02 0.14608101696E+02
 0.13624637112E+02 0.12632956504E+02 0.11680367143E+02 0.10808721013E+02 0.10047825133E+02
 0.94150046264E+01 0.89185726319E+01 0.85621245046E+01 0.83474839927E+01 0.82757932528E+01
 0.83474839927E+01 0.85621245046E+01 0.89185726319E+01 0.94150046264E+01 0.10047825133E+02
 0.10808721013E+02 0.11680367143E+02 0.12632956504E+02 0.13624637112E+02 0.14608101696E+02
 0.15542979287E+02 0.16410461532E+02 0.17224560301E+02 0.18035061641E+02 0.18920758931E+02
 0.19976080417E+02 0.21296789402E+02 0.22969062068E+02 0.25061792942E+02 0.27617778920E+02
 0.30638950941E+02 0.34065157231E+02 0.37753007188E+02 0.41466652877E+02 0.44892067348E+02
 0.47679184717E+02 0.49505033391E+02 0.36702357237E+02 0.36339622372E+02 0.35295950461E+02
 0.33695270774E+02 0.31714924086E+02 0.29551293171E+02 0.27386873257E+02 0.25366739696E+02
 0.23587682065E+02 0.22098136674E+02 0.20904040331E+02 0.19976080417E+02 0.19256657622E+02
 0.18667856130E+02 0.18122604864E+02 0.17539400135E+02 0.16857823050E+02 0.16049997697E+02
 0.15123776005E+02 0.14116601518E+02 0.13082813529E+02 0.12079420445E+02 0.11155069448E+02
 0.10344662245E+02 0.96693451359E+01 0.91398014859E+01 0.87604088665E+01 0.85325637047E+01
 0.84565982550E+01 0.85325637047E+01 0.87604088665E+01 0.91398014859E+01 0.96693451359E+01
 0.10344662245E+02 0.11155069448E+02 0.12079420445E+02 0.13082813529E+02 0.14116601518E+02
 0.15123776005E+02 0.16049997697E+02 0.16857823050E+02 0.17539400135E+02 0.18122604864E+02
 0.18667856130E+02 0.19256657622E+02 0.19976080417E+02 0.20904040331E+02 0.22098136674E+02
 0.23587682065E+02 0.25366739696E+02 0.27386873257E+02 0.29551293171E+02 0.31714924086E+02
 0.33695270774E+02 0.35295950461E+02 0.36339622372E+02 0.27623085737E+02 0.27422976541E+02
 0.26846590304E+02 0.25961275490E+02 0.24865529415E+02 0.23672096851E+02 0.22490476688E+02
 0.21412347468E+02 0.20501742211E+02 0.19789986109E+02 0.19274489226E+02 0.18920758931E+02
 0.18667856130E+02 0.18437938999E+02 0.18149787789E+02 0.17734394663E+02 0.17148875091E+02
 0.16384511585E+02 0.15466387888E+02 0.14445133270E+02 0.13384098198E+02 0.12346382787E+02
 0.11385274242E+02 0.10539649249E+02 0.98339078512E+01 0.92808089813E+01 0.88853706600E+01
 0.86484926680E+01 0.85696500608E+01 0.86484926680E+01 0.88853706600E+01 0.92808089813E+01
 0.98339078512E+01 0.10539649249E+02 0.11385274242E+02 0.12346382787E+02 0.13384098198E+02
 0.14445133270E+02 0.15466387888E+02 0.16384511585E+02 0.17148875091E+02 0.17734394663E+02
 0.18149787789E+02 0.18437938999E+02 0.18667856130E+02 0.18920758931E+02 0.19274489226E+02
 0.19789986109E+02 0.20501742211E+02 0.21412347468E+02 0.22490476688E+02 0.23672096851E+02
 0.24865529415E+02 0.25961275490E+02 0.26846590304E+02 0.27422976541E+02 0.21371287474E+02
 0.21268054877E+02 0.20971853922E+02 0.20521193886E+02 0.19973901449E+02 0.19398471057E+02
 0.18863682806E+02 0.18427966730E+02 0.18129985008E+02 0.17981756682E+02 0.17965489954E+02
 0.18035061641E+02 0.18122604864E+02 0.18149787789E+02 0.18042122401E+02 0.17743364887E+02
 0.17226413394E+02 0.16497734663E+02 0.15594311999E+02 0.14574560831E+02 0.13506379685E+02
 0.12455787320E+02 0.11478641612E+02 0.10616460815E+02 0.98960346145E+01 0.93316948171E+01
 0.89289130682E+01 0.86881355312E+01 0.86081060265E+01 0.86881355312E+01 0.89289130682E+01
 0.93316948171E+01 0.98960346145E+01 0.10616460815E+02 0.11478641612E+02 0.12455787320E+02
 0.13506379685E+02 0.14574560831E+02 0.15594311999E+02 0.16497734663E+02 0.17226413394E+02
 0.17743364887E+02 0.18042122401E+02 0.18149787789E+02 0.18122604864E+02 0.18035061641E+02
 0.17965489954E+02 0.17981756682E+02 0.18129985008E+02 0.18427966730E+02 0.18863682806E+02
 0.19398471057E+02 0.19973901449E+02 0.20521193886E+02 0.20971853922E+02 0.21268054877E+02
 0.16972029325E+02 0.16928476913E+02 0.16806053688E+02 0.16628545364E+02 0.16432396724E+02
 0.16261584977E+02 0.16160296965E+02 0.16164130371E+02 0.16291332904E+02 0.16536113987E+02
 0.16866008215E+02 0.17224560301E+02 0.17539400135E+02 0.17734394663E+02 0.17743364887E+02
 0.17522222803E+02 0.17056639376E+02 0.16363564271E+02 0.15486695581E+02 0.14487624653E+02
 0.13435236102E+02 0.12395867943E+02 0.11426006462E+02 0.10568311788E+02 0.98508680833E+01
 0.92889410395E+01 0.88882872196E+01 0.86490869615E+01 0.85696500608E+01 0.86490869615E+01
 0.88882872196E+01 0.92889410395E+01 0.98508680833E+01 0.10568311788E+02 0.11426006462E+02
 0.12395867943E+02 0.13435236102E+02 0.14487624653E+02 0.15486695581E+02 0.16363564271E+02
 0.17056639376E+02 0.17522222803E+02 0.17743364887E+02 0.17734394663E+02 0.17539400135E+02
 0.17224560301E+02 0.16866008215E+02 0.16536113987E+02 0.16291332904E+02 0.16164130371E+02
 0.16160296965E+02 0.16261584977E+02 0.16432396724E+02 0.16628545364E+02 0.16806053688E+02
 0.16928476913E+02 0.13843720661E+02 0.13838219651E+02 0.13827052141E+02 0.13825723533E+02
 0.13858130043E+02 0.13952908052E+02 0.14137577058E+02 0.14430988306E+02 0.14835644247E+02
 0.15332127989E+02 0.15877741614E+02 0.16410461532E+02 0.16857823050E+02 0.17148875091E+02
 0.17226413394E+02 0.17056639376E+02 0.16634208400E+02 0.15981970576E+02 0.15146037786E+02
 0.14187725511E+02 0.13174294204E+02 0.12170326123E+02 0.11231136519E+02 0.10398963391E+02
 0.97019955892E+01 0.91557826837E+01 0.87662964785E+01 0.85337981657E+01 0.84565982550E+01
 0.85337981657E+01 0.87662964785E+01 0.91557826837E+01 0.97019955892E+01 0.10398963391E+02
 0.11231136519E+02 0.12170326123E+02 0.13174294204E+02 0.14187725511E+02 0.15146037786E+02
 0.15981970576E+02 0.16634208400E+02 0.17056639376E+02 0.17226413394E+02 0.17148875091E+02
 0.16857823050E+02 0.16410461532E+02 0.15877741614E+02 0.15332127989E+02 0.14835644247E+02
 0.14430988306E+02 0.14137577058E+02 0.13952908052E+02 0.13858130043E+02 0.13825723533E+02
 0.13827052141E+02 0.13838219651E+02 0.11622706676E+02 0.11641420674E+02 0.11701009327E+02
 0.11811489329E+02 0.11988179525E+02 0.12248843813E+02 0.12608857982E+02 0.13074864448E+02
 0.13638412419E+02 0.14271703994E+02 0.14927351089E+02 0.15542979287E+02 0.16049997697E+02
 0.16384511585E+02 0.16497734663E+02 0.16363564271E+02 0.15981970576E+02 0.15378004408E+02
 0.14597119332E+02 0.13698019882E+02 0.12744490033E+02 0.11797683820E+02 0.10910123181E+02
 0.10122146026E+02 0.94609424016E+01 0.89418210200E+01 0.85710470406E+01 0.83494326751E+01
 0.82757932528E+01 0.83494326751E+01 0.85710470406E+01 0.89418210200E+01 0.94609424016E+01
 0.10122146026E+02 0.10910123181E+02 0.11797683820E+02 0.12744490033E+02 0.13698019882E+02
 0.14597119332E+02 0.15378004408E+02 0.15981970576E+02 0.16363564271E+02 0.16497734663E+02
 0.16384511585E+02 0.16049997697E+02 0.15542979287E+02 0.14927351089E+02 0.14271703994E+02
 0.13638412419E+02 0.13074864448E+02 0.12608857982E+02 0.12248843813E+02 0.11988179525E+02
 0.11811489329E+02 0.11701009327E+02 0.11641420674E+02 0.10048576176E+02 0.10081922487E+02
 0.10183962457E+02 0.10360504133E+02 0.10620289928E+02 0.10972828956E+02 0.11424562414E+02
 0.11973767246E+02 0.12605517160E+02 0.13288546140E+02 0.13975629161E+02 0.14608101696E+02
 0.15123776005E+02 0.15466387888E+02 0.15594311999E+02 0.15486695581E+02 0.15146037786E+02
 0.14597119332E+02 0.13882813057E+02 0.13057709840E+02 0.12180775657E+02 0.11308380827E+02
 0.10488886180E+02 0.97595106744E+01 0.91456034528E+01 0.86619259842E+01 0.83152426350E+01
 0.81074150193E+01 0.80382396496E+01 0.81074150193E+01 0.83152426350E+01 0.86619259842E+01
 0.91456034528E+01 0.97595106744E+01 0.10488886180E+02 0.11308380827E+02 0.12180775657E+02
 0.13057709840E+02 0.13882813057E+02 0.14597119332E+02 0.15146037786E+02 0.15486695581E+02
 0.15594311999E+02 0.15466387888E+02 0.15123776005E+02 0.14608101696E+02 0.13975629161E+02
 0.13288546140E+02 0.12605517160E+02 0.11973767246E+02 0.11424562414E+02 0.10972828956E+02
 0.10620289928E+02 0.10360504133E+02 0.10183962457E+02 0.10081922487E+02 0.89217799598E+01
 0.89629566580E+01 0.90873115263E+01 0.92972569134E+01 0.95963337317E+01 0.99877649541E+01
 0.10471640021E+02 0.11041025284E+02 0.11678080697E+02 0.12351712402E+02 0.13018103245E+02
 0.13624637112E+02 0.14116601518E+02 0.14445133270E+02 0.14574560831E+02 0.14487624653E+02
 0.14187725511E+02 0.13698019882E+02 0.13057709840E+02 0.12316302008E+02 0.11526959143E+02
 0.10740235382E+02 0.99993342918E+01 0.93375502916E+01 0.87779215887E+01 0.83345841859E+01
 0.80150445659E+01 0.78226056459E+01 0.77583843030E+01 0.78226056459E+01 0.80150445659E+01
 0.83345841859E+01 0.87779215887E+01 0.93375502916E+01 0.99993342918E+01 0.10740235382E+02
 0.11526959143E+02 0.12316302008E+02 0.13057709840E+02 0.13698019882E+02 0.14187725511E+02
 0.14487624653E+02 0.14574560831E+02 0.14445133270E+02 0.14116601518E+02 0.13624637112E+02
 0.13018103245E+02 0.12351712402E+02 0.11678080697E+02 0.11041025284E+02 0.10471640021E+02
 0.99877649541E+01 0.95963337317E+01 0.92972569134E+01 0.90873115263E+01 0.89629566580E+01
 0.80957375821E+01 0.81399649552E+01 0.82725776550E+01 0.84934232891E+01 0.88021791991E+01
 0.91975603998E+01 0.96754198220E+01 0.10225908586E+02 0.10830534688E+02 0.11460356062E+02
 0.12076424262E+02 0.12632956504E+02 0.13082813529E+02 0.13384098198E+02 0.13506379685E+02
 0.13435236102E+02 0.13174294204E+02 0.12744490033E+02 0.12180775657E+02 0.11526959143E+02
 0.10829752019E+02 0.10133271201E+02 0.94750623688E+01 0.88841923410E+01 0.83812995896E+01
 0.79799691922E+01 0.76886025355E+01 0.75120979634E+01 0.74529999325E+01 0.75120979634E+01
 0.76886025355E+01 0.79799691922E+01 0.83812995896E+01 0.88841923410E+01 0.94750623688E+01
 0.10133271201E+02 0.10829752019E+02 0.11526959143E+02 0.12180775657E+02 0.12744490033E+02
 0.13174294204E+02 0.13435236102E+02 0.13506379685E+02 0.13384098198E+02 0.13082813529E+02
 0.12632956504E+02 0.12076424262E+02 0.11460356062E+02 0.10830534688E+02 0.10225908586E+02
 0.96754198220E+01 0.91975603998E+01 0.88021791991E+01 0.84934232891E+01 0.82725776550E+01
 0.81399649552E+01 0.74700971493E+01 0.75142807575E+01 0.76461712707E+01 0.78639146325E+01
 0.81646181147E+01 0.85440269111E+01 0.89953270060E+01 0.95071443760E+01 0.10061372563E+02
 0.10631809603E+02 0.11184521285E+02 0.11680367143E+02 0.12079420445E+02 0.12346382787E+02
 0.12455787320E+02 0.12395867943E+02 0.12170326123E+02 0.11797683820E+02 0.11308380827E+02
 0.10740235382E+02 0.10133271201E+02 0.95250679359E+01 0.89475818519E+01 0.84258441943E+01
 0.79783010171E+01 0.76180935957E+01 0.73544702108E+01 0.71937604619E+01 0.71397634640E+01
 0.71937604619E+01 0.73544702108E+01 0.76180935957E+01 0.79783010171E+01 0.84258441943E+01
 0.89475818519E+01 0.95250679359E+01 0.10133271201E+02 0.10740235382E+02 0.11308380827E+02
 0.11797683820E+02 0.12170326123E+02 0.12395867943E+02 0.12455787320E+02 0.12346382787E+02
 0.12079420445E+02 0.11680367143E+02 0.11184521285E+02 0.10631809603E+02 0.10061372563E+02
 0.95071443760E+01 0.89953270060E+01 0.85440269111E+01 0.81646181147E+01 0.78639146325E+01
 0.76461712707E+01 0.75142807575E+01 0.69820741946E+01 0.70245695100E+01 0.71510522957E+01
 0.73586600901E+01 0.76429276359E+01 0.79977321959E+01 0.84145818966E+01 0.88812646485E+01
 0.93803274932E+01 0.98881473478E+01 0.10375319110E+02 0.10808721013E+02 0.11155069448E+02
 0.11385274242E+02 0.11478641612E+02 0.11426006462E+02 0.11231136519E+02 0.10910123181E+02
 0.10488886180E+02 0.99993342918E+01 0.94750623688E+01 0.89475818519E+01 0.84438666433E+01
 0.79854943356E+01 0.75890886593E+01 0.72673825044E+01 0.70301778151E+01 0.68847594309E+01
 0.68357526617E+01 0.68847594309E+01 0.70301778151E+01 0.72673825044E+01 0.75890886593E+01
 0.79854943356E+01 0.84438666433E+01 0.89475818519E+01 0.94750623688E+01 0.99993342918E+01
 0.10488886180E+02 0.10910123181E+02 0.11231136519E+02 0.11426006462E+02 0.11478641612E+02
 0.11385274242E+02 0.11155069448E+02 0.10808721013E+02 0.10375319110E+02 0.98881473478E+01
 0.93803274932E+01 0.88812646485E+01 0.84145818966E+01 0.79977321959E+01 0.76429276359E+01
 0.73586600901E+01 0.71510522957E+01 0.70245695100E+01 0.65994218815E+01 0.66394993985E+01
 0.67585709464E+01 0.69532791531E+01 0.72183120414E+01 0.75464502792E+01 0.79281592655E+01
 0.83507320727E+01 0.87973298739E+01 0.92464884325E+01 0.96726288895E+01 0.10047825133E+02
 0.10344662245E+02 0.10539649249E+02 0.10616460815E+02 0.10568311788E+02 0.10398963391E+02
 0.10122146026E+02 0.97595106744E+01 0.93375502916E+01 0.88841923410E+01 0.84258441943E+01
 0.79854943356E+01 0.75820682983E+01 0.72307737562E+01 0.69438586628E+01 0.67311903501E+01
 0.66003275745E+01 0.65561413745E+01 0.66003275745E+01 0.67311903501E+01 0.69438586628E+01
 0.72307737562E+01 0.75820682983E+01 0.79854943356E+01 0.84258441943E+01 0.88841923410E+01
 0.93375502916E+01 0.97595106744E+01 0.10122146026E+02 0.10398963391E+02 0.10568311788E+02
 0.10616460815E+02 0.10539649249E+02 0.10344662245E+02 0.10047825133E+02 0.96726288895E+01
 0.92464884325E+01 0.87973298739E+01 0.83507320727E+01 0.79281592655E+01 0.75464502792E+01
 0.72183120414E+01 0.69532791531E+01 0.67585709464E+01 0.66394993985E+01 0.63090250715E+01
 0.63462875380E+01 0.64569290745E+01 0.66375771706E+01 0.68827489337E+01 0.71848389697E+01
 0.75338379748E+01 0.79168182059E+01 0.83174462019E+01 0.87159197279E+01 0.90896778025E+01
 0.94150046264E+01 0.96693451359E+01 0.98339078512E+01 0.98960346145E+01 0.98508680833E+01
 0.97019955892E+01 0.94609424016E+01 0.91456034528E+01 0.87779215887E+01 0.83812995896E+01
 0.79783010171E+01 0.75890886593E+01 0.72307737562E+01 0.69175076384E+01 0.66609029121E+01
 0.64703480668E+01 0.63529754419E+01 0.63133280415E+01 0.63529754419E+01 0.64703480668E+01
 0.66609029121E+01 0.69175076384E+01 0.72307737562E+01 0.75890886593E+01 0.79783010171E+01
 0.83812995896E+01 0.87779215887E+01 0.91456034528E+01 0.94609424016E+01 0.97019955892E+01
 0.98508680833E+01 0.98960346145E+01 0.98339078512E+01 0.96693451359E+01 0.94150046264E+01
 0.90896778025E+01 0.87159197279E+01 0.83174462019E+01 0.79168182059E+01 0.75338379748E+01
 0.71848389697E+01 0.68827489337E+01 0.66375771706E+01 0.64569290745E+01 0.63462875380E+01
 0.61012345343E+01 0.61355378854E+01 0.62374597355E+01 0.64040123324E+01 0.66301169420E+01
 0.69084029932E+01 0.72288986008E+01 0.75787139272E+01 0.79419269621E+01 0.82999191693E+01
 0.86323247502E+01 0.89185726319E+01 0.91398014859E+01 0.92808089813E+01 0.93316948171E+01
 0.92889410395E+01 0.91557826837E+01 0.89418210200E+01 0.86619259842E+01 0.83345841859E+01
 0.79799691922E+01 0.76180935957E+01 0.72673825044E+01 0.69438586628E+01 0.66609029121E+01
 0.64293636315E+01 0.62577342643E+01 0.61522112568E+01 0.61166064226E+01 0.61522112568E+01
 0.62577342643E+01 0.64293636315E+01 0.66609029121E+01 0.69438586628E+01 0.72673825044E+01
 0.76180935957E+01 0.79799691922E+01 0.83345841859E+01 0.86619259842E+01 0.89418210200E+01
 0.91557826837E+01 0.92889410395E+01 0.93316948171E+01 0.92808089813E+01 0.91398014859E+01
 0.89185726319E+01 0.86323247502E+01 0.82999191693E+01 0.79419269621E+01 0.75787139272E+01
 0.72288986008E+01 0.69084029932E+01 0.66301169420E+01 0.64040123324E+01 0.62374597355E+01
 0.61355378854E+01 0.59626552606E+01 0.59943840810E+01 0.60887771182E+01 0.62433486865E+01
 0.64536271209E+01 0.67127438875E+01 0.70110307784E+01 0.73357979331E+01 0.76714781299E+01
 0.80002707204E+01 0.83032968026E+01 0.85621245046E+01 0.87604088665E+01 0.88853706600E+01
 0.89289130682E+01 0.88882872196E+01 0.87662964785E+01 0.85710470406E+01 0.83152426350E+01
 0.80150445659E+01 0.76886025355E+01 0.73544702108E+01 0.70301778151E+01 0.67311903501E+01
 0.64703480668E+01 0.62577342643E+01 0.61008171008E+01 0.60046965121E+01 0.59723329795E+01
 0.60046965121E+01 0.61008171008E+01 0.62577342643E+01 0.64703480668E+01 0.67311903501E+01
 0.70301778151E+01 0.73544702108E+01 0.76886025355E+01 0.80150445659E+01 0.83152426350E+01
 0.85710470406E+01 0.87662964785E+01 0.88882872196E+01 0.89289130682E+01 0.88853706600E+01
 0.87604088665E+01 0.85621245046E+01 0.83032968026E+01 0.80002707204E+01 0.76714781299E+01
 0.73357979331E+01 0.70110307784E+01 0.67127438875E+01 0.64536271209E+01 0.62433486865E+01
 0.60887771182E+01 0.59943840810E+01 0.58818473220E+01 0.59119147832E+01 0.60014523307E+01
 0.61483120837E+01 0.63484490925E+01 0.65953796061E+01 0.68797102735E+01 0.71889579330E+01
 0.75078357739E+01 0.78190723928E+01 0.81046835706E+01 0.83474839927E+01 0.85325637047E+01
 0.86484926680E+01 0.86881355312E+01 0.86490869615E+01 0.85337981657E+01 0.83494326751E+01
 0.81074150193E+01 0.78226056459E+01 0.75120979634E+01 0.71937604619E+01 0.68847594309E+01
 0.66003275745E+01 0.63529754419E+01 0.61522112568E+01 0.60046965121E+01 0.59146673017E+01
 0.58844177306E+01 0.59146673017E+01 0.60046965121E+01 0.61522112568E+01 0.63529754419E+01
 0.66003275745E+01 0.68847594309E+01 0.71937604619E+01 0.75120979634E+01 0.78226056459E+01
 0.81074150193E+01 0.83494326751E+01 0.85337981657E+01 0.86490869615E+01 0.86881355312E+01
 0.86484926680E+01 0.85325637047E+01 0.83474839927E+01 0.81046835706E+01 0.78190723928E+01
 0.75078357739E+01 0.71889579330E+01 0.68797102735E+01 0.65953796061E+01 0.63484490925E+01
 0.61483120837E+01 0.60014523307E+01 0.59119147832E+01 0.58549041502E+01 0.58844177306E+01
 0.59723329795E+01 0.61166064226E+01 0.63133280415E+01 0.65561413745E+01 0.68357526617E+01
 0.71397634640E+01 0.74529999325E+01 0.77583843030E+01 0.80382396496E+01 0.82757932528E+01
 0.84565982550E+01 0.85696500608E+01 0.86081060265E+01 0.85696500608E+01 0.84565982550E+01
 0.82757932528E+01 0.80382396496E+01 0.77583843030E+01 0.74529999325E+01 0.71397634640E+01
 0.68357526617E+01 0.65561413745E+01 0.63133280415E+01 0.61166064226E+01 0.59723329795E+01
 0.58844177306E+01 0.58549041502E+01 0.58844177306E+01 0.59723329795E+01 0.61166064226E+01
 0.63133280415E+01 0.65561413745E+01 0.68357526617E+01 0.71397634640E+01 0.74529999325E+01
 0.77583843030E+01 0.80382396496E+01 0.82757932528E+01 0.84565982550E+01 0.85696500608E+01
 0.86081060265E+01 0.85696500608E+01 0.84565982550E+01 0.82757932528E+01 0.80382396496E+01
 0.77583843030E+01 0.74529999325E+01 0.71397634640E+01 0.68357526617E+01 0.65561413745E+01
 0.63133280415E+01 0.61166064226E+01 0.59723329795E+01 0.58844177306E+01 0.58818473220E+01