   6   6   1   0
  0.1337478E+02  0.4313329E-09  0.4313329E-09  0.4313329E-09  0.5000000E-15
  1.000000000000000E-004
  CAR 
 unknown system                          
     20.00000000    -20.00000000 2401      2.38196444      1.00000000
    -20.000  0.0000E+00  0.0000E+00
    -19.983  0.0000E+00  0.0000E+00
    -19.967  0.0000E+00  0.0000E+00
    -19.950  0.0000E+00  0.0000E+00
    -19.933  0.0000E+00  0.0000E+00
    -19.917  0.0000E+00  0.0000E+00
    -19.900  0.0000E+00  0.0000E+00
    -19.883  0.0000E+00  0.0000E+00
    -19.867  0.0000E+00  0.0000E+00
    -19.850  0.0000E+00  0.0000E+00
    -19.833  0.0000E+00  0.0000E+00
    -19.817  0.0000E+00  0.0000E+00
    -19.800  0.0000E+00  0.0000E+00
    -19.783  0.0000E+00  0.0000E+00
    -19.767  0.0000E+00  0.0000E+00
    -19.750  0.0000E+00  0.0000E+00
    -19.733  0.0000E+00  0.0000E+00
    -19.717  0.0000E+00  0.0000E+00
    -19.700  0.0000E+00  0.0000E+00
    -19.683  0.0000E+00  0.0000E+00
    -19.667  0.0000E+00  0.0000E+00
    -19.650  0.0000E+00  0.0000E+00
    -19.633  0.0000E+00  0.0000E+00
    -19.617  0.0000E+00  0.0000E+00
    -19.600  0.0000E+00  0.0000E+00
    -19.583  0.0000E+00  0.0000E+00
    -19.567  0.0000E+00  0.0000E+00
    -19.550  0.0000E+00  0.0000E+00
    -19.533  0.0000E+00  0.0000E+00
    -19.517  0.0000E+00  0.0000E+00
    -19.500  0.0000E+00  0.0000E+00
    -19.483  0.0000E+00  0.0000E+00
    -19.467  0.0000E+00  0.0000E+00
    -19.450  0.0000E+00  0.0000E+00
    -19.433  0.0000E+00  0.0000E+00
    -19.417  0.0000E+00  0.0000E+00
    -19.400  0.0000E+00  0.0000E+00
    -19.383  0.0000E+00  0.0000E+00
    -19.367  0.0000E+00  0.0000E+00
    -19.350  0.0000E+00  0.0000E+00
    -19.333  0.0000E+00  0.0000E+00
    -19.317  0.0000E+00  0.0000E+00
    -19.300  0.0000E+00  0.0000E+00
    -19.283  0.0000E+00  0.0000E+00
    -19.267  0.0000E+00  0.0000E+00
    -19.250  0.0000E+00  0.0000E+00
    -19.233  0.0000E+00  0.0000E+00
    -19.217  0.0000E+00  0.0000E+00
    -19.200  0.0000E+00  0.0000E+00
    -19.183  0.0000E+00  0.0000E+00
    -19.167  0.0000E+00  0.0000E+00
    -19.150  0.0000E+00  0.0000E+00
    -19.133  0.0000E+00  0.0000E+00
    -19.117  0.0000E+00  0.0000E+00
    -19.100  0.0000E+00  0.0000E+00
    -19.083  0.0000E+00  0.0000E+00
    -19.067  0.0000E+00  0.0000E+00
    -19.050  0.0000E+00  0.0000E+00
    -19.033  0.0000E+00  0.0000E+00
    -19.017  0.0000E+00  0.0000E+00
    -19.000  0.0000E+00  0.0000E+00
    -18.983  0.0000E+00  0.0000E+00
    -18.967  0.0000E+00  0.0000E+00
    -18.950  0.0000E+00  0.0000E+00
    -18.933  0.0000E+00  0.0000E+00
    -18.917  0.0000E+00  0.0000E+00
    -18.900  0.0000E+00  0.0000E+00
    -18.883  0.0000E+00  0.0000E+00
    -18.867  0.0000E+00  0.0000E+00
    -18.850  0.0000E+00  0.0000E+00
    -18.833  0.0000E+00  0.0000E+00
    -18.817  0.0000E+00  0.0000E+00
    -18.800  0.0000E+00  0.0000E+00
    -18.783  0.0000E+00  0.0000E+00
    -18.767  0.0000E+00  0.0000E+00
    -18.750  0.0000E+00  0.0000E+00
    -18.733  0.0000E+00  0.0000E+00
    -18.717  0.0000E+00  0.0000E+00
    -18.700  0.0000E+00  0.0000E+00
    -18.683  0.0000E+00  0.0000E+00
    -18.667  0.0000E+00  0.0000E+00
    -18.650  0.0000E+00  0.0000E+00
    -18.633  0.0000E+00  0.0000E+00
    -18.617  0.0000E+00  0.0000E+00
    -18.600  0.0000E+00  0.0000E+00
    -18.583  0.0000E+00  0.0000E+00
    -18.567  0.0000E+00  0.0000E+00
    -18.550  0.0000E+00  0.0000E+00
    -18.533  0.0000E+00  0.0000E+00
    -18.517  0.0000E+00  0.0000E+00
    -18.500  0.0000E+00  0.0000E+00
    -18.483  0.0000E+00  0.0000E+00
    -18.467  0.0000E+00  0.0000E+00
    -18.450  0.0000E+00  0.0000E+00
    -18.433  0.0000E+00  0.0000E+00
    -18.417  0.0000E+00  0.0000E+00
    -18.400  0.0000E+00  0.0000E+00
    -18.383  0.0000E+00  0.0000E+00
    -18.367  0.0000E+00  0.0000E+00
    -18.350  0.0000E+00  0.0000E+00
    -18.333  0.0000E+00  0.0000E+00
    -18.317  0.2467E-15  0.4112E-17
    -18.300  0.1234E-14  0.2467E-16
    -18.283  0.9129E-14  0.1768E-15
    -18.267  0.5724E-13  0.1131E-14
    -18.250  0.3397E-12  0.6793E-14
    -18.233  0.1910E-11  0.3863E-13
    -18.217  0.1017E-10  0.2081E-12
    -18.200  0.5120E-10  0.1061E-11
    -18.183  0.2440E-09  0.5128E-11
    -18.167  0.1100E-08  0.2346E-10
    -18.150  0.4692E-08  0.1017E-09
    -18.133  0.1894E-07  0.4172E-09
    -18.117  0.7231E-07  0.1622E-08
    -18.100  0.2613E-06  0.5977E-08
    -18.083  0.8932E-06  0.2086E-07
    -18.067  0.2890E-05  0.6902E-07
    -18.050  0.8844E-05  0.2164E-06
    -18.033  0.2561E-04  0.6433E-06
    -18.017  0.7019E-04  0.1813E-05
    -18.000  0.1820E-03  0.4846E-05
    -17.983  0.4465E-03  0.1229E-04
    -17.967  0.1036E-02  0.2956E-04
    -17.950  0.2276E-02  0.6750E-04
    -17.933  0.4731E-02  0.1464E-03
    -17.917  0.9305E-02  0.3014E-03
    -17.900  0.1732E-01  0.5901E-03
    -17.883  0.3051E-01  0.1098E-02
    -17.867  0.5087E-01  0.1946E-02
    -17.850  0.8032E-01  0.3285E-02
    -17.833  0.1202E+00  0.5288E-02
    -17.817  0.1706E+00  0.8130E-02
    -17.800  0.2301E+00  0.1196E-01
    -17.783  0.2960E+00  0.1690E-01
    -17.767  0.3655E+00  0.2299E-01
    -17.750  0.4375E+00  0.3028E-01
    -17.733  0.5151E+00  0.3887E-01
    -17.717  0.6091E+00  0.4902E-01
    -17.700  0.7387E+00  0.6133E-01
    -17.683  0.9321E+00  0.7687E-01
    -17.667  0.1223E+01  0.9725E-01
    -17.650  0.1646E+01  0.1247E+00
    -17.633  0.2228E+01  0.1618E+00
    -17.617  0.2982E+01  0.2115E+00
    -17.600  0.3899E+01  0.2765E+00
    -17.583  0.4942E+01  0.3589E+00
    -17.567  0.6050E+01  0.4597E+00
    -17.550  0.7141E+01  0.5787E+00
    -17.533  0.8117E+01  0.7140E+00
    -17.517  0.8884E+01  0.8621E+00
    -17.500  0.9362E+01  0.1018E+01
    -17.483  0.9503E+01  0.1177E+01
    -17.467  0.9303E+01  0.1332E+01
    -17.450  0.8809E+01  0.1478E+01
    -17.433  0.8114E+01  0.1614E+01
    -17.417  0.7348E+01  0.1736E+01
    -17.400  0.6652E+01  0.1847E+01
    -17.383  0.6155E+01  0.1950E+01
    -17.367  0.5946E+01  0.2049E+01
    -17.350  0.6061E+01  0.2150E+01
    -17.333  0.6474E+01  0.2258E+01
    -17.317  0.7107E+01  0.2376E+01
    -17.300  0.7843E+01  0.2507E+01
    -17.283  0.8553E+01  0.2649E+01
    -17.267  0.9110E+01  0.2801E+01
    -17.250  0.9415E+01  0.2958E+01
    -17.233  0.9402E+01  0.3115E+01
    -17.217  0.9051E+01  0.3266E+01
    -17.200  0.8387E+01  0.3405E+01
    -17.183  0.7471E+01  0.3530E+01
    -17.167  0.6395E+01  0.3636E+01
    -17.150  0.5262E+01  0.3724E+01
    -17.133  0.4170E+01  0.3794E+01
    -17.117  0.3196E+01  0.3847E+01
    -17.100  0.2386E+01  0.3887E+01
    -17.083  0.1753E+01  0.3916E+01
    -17.067  0.1286E+01  0.3937E+01
    -17.050  0.9542E+00  0.3953E+01
    -17.033  0.7217E+00  0.3965E+01
    -17.017  0.5555E+00  0.3975E+01
    -17.000  0.4307E+00  0.3982E+01
    -16.983  0.3314E+00  0.3987E+01
    -16.967  0.2495E+00  0.3991E+01
    -16.950  0.1815E+00  0.3994E+01
    -16.933  0.1267E+00  0.3997E+01
    -16.917  0.8433E-01  0.3998E+01
    -16.900  0.5338E-01  0.3999E+01
    -16.883  0.3206E-01  0.3999E+01
    -16.867  0.1825E-01  0.4000E+01
    -16.850  0.9842E-02  0.4000E+01
    -16.833  0.5025E-02  0.4000E+01
    -16.817  0.2428E-02  0.4000E+01
    -16.800  0.1110E-02  0.4000E+01
    -16.783  0.4805E-03  0.4000E+01
    -16.767  0.1967E-03  0.4000E+01
    -16.750  0.7623E-04  0.4000E+01
    -16.733  0.2795E-04  0.4000E+01
    -16.717  0.9696E-05  0.4000E+01
    -16.700  0.3183E-05  0.4000E+01
    -16.683  0.9885E-06  0.4000E+01
    -16.667  0.2905E-06  0.4000E+01
    -16.650  0.8077E-07  0.4000E+01
    -16.633  0.2125E-07  0.4000E+01
    -16.617  0.5289E-08  0.4000E+01
    -16.600  0.1246E-08  0.4000E+01
    -16.583  0.2776E-09  0.4000E+01
    -16.567  0.5854E-10  0.4000E+01
    -16.550  0.1168E-10  0.4000E+01
    -16.533  0.2205E-11  0.4000E+01
    -16.517  0.3938E-12  0.4000E+01
    -16.500  0.6612E-13  0.4000E+01
    -16.483  0.1086E-13  0.4000E+01
    -16.467  0.1974E-14  0.4000E+01
    -16.450  0.0000E+00  0.4000E+01
    -16.433  0.0000E+00  0.4000E+01
    -16.417  0.0000E+00  0.4000E+01
    -16.400  0.0000E+00  0.4000E+01
    -16.383  0.0000E+00  0.4000E+01
    -16.367  0.0000E+00  0.4000E+01
    -16.350  0.0000E+00  0.4000E+01
    -16.333  0.0000E+00  0.4000E+01
    -16.317  0.0000E+00  0.4000E+01
    -16.300  0.0000E+00  0.4000E+01
    -16.283  0.0000E+00  0.4000E+01
    -16.267  0.0000E+00  0.4000E+01
    -16.250  0.0000E+00  0.4000E+01
    -16.233  0.0000E+00  0.4000E+01
    -16.217  0.0000E+00  0.4000E+01
    -16.200  0.0000E+00  0.4000E+01
    -16.183  0.0000E+00  0.4000E+01
    -16.167  0.0000E+00  0.4000E+01
    -16.150  0.0000E+00  0.4000E+01
    -16.133  0.0000E+00  0.4000E+01
    -16.117  0.0000E+00  0.4000E+01
    -16.100  0.0000E+00  0.4000E+01
    -16.083  0.0000E+00  0.4000E+01
    -16.067  0.0000E+00  0.4000E+01
    -16.050  0.0000E+00  0.4000E+01
    -16.033  0.0000E+00  0.4000E+01
    -16.017  0.0000E+00  0.4000E+01
    -16.000  0.0000E+00  0.4000E+01
    -15.983  0.0000E+00  0.4000E+01
    -15.967  0.0000E+00  0.4000E+01
    -15.950  0.0000E+00  0.4000E+01
    -15.933  0.0000E+00  0.4000E+01
    -15.917  0.0000E+00  0.4000E+01
    -15.900  0.0000E+00  0.4000E+01
    -15.883  0.0000E+00  0.4000E+01
    -15.867  0.0000E+00  0.4000E+01
    -15.850  0.0000E+00  0.4000E+01
    -15.833  0.0000E+00  0.4000E+01
    -15.817  0.0000E+00  0.4000E+01
    -15.800  0.0000E+00  0.4000E+01
    -15.783  0.0000E+00  0.4000E+01
    -15.767  0.0000E+00  0.4000E+01
    -15.750  0.0000E+00  0.4000E+01
    -15.733  0.0000E+00  0.4000E+01
    -15.717  0.0000E+00  0.4000E+01
    -15.700  0.0000E+00  0.4000E+01
    -15.683  0.0000E+00  0.4000E+01
    -15.667  0.0000E+00  0.4000E+01
    -15.650  0.0000E+00  0.4000E+01
    -15.633  0.0000E+00  0.4000E+01
    -15.617  0.0000E+00  0.4000E+01
    -15.600  0.0000E+00  0.4000E+01
    -15.583  0.0000E+00  0.4000E+01
    -15.567  0.0000E+00  0.4000E+01
    -15.550  0.0000E+00  0.4000E+01
    -15.533  0.0000E+00  0.4000E+01
    -15.517  0.0000E+00  0.4000E+01
    -15.500  0.0000E+00  0.4000E+01
    -15.483  0.0000E+00  0.4000E+01
    -15.467  0.0000E+00  0.4000E+01
    -15.450  0.0000E+00  0.4000E+01
    -15.433  0.0000E+00  0.4000E+01
    -15.417  0.0000E+00  0.4000E+01
    -15.400  0.0000E+00  0.4000E+01
    -15.383  0.0000E+00  0.4000E+01
    -15.367  0.0000E+00  0.4000E+01
    -15.350  0.0000E+00  0.4000E+01
    -15.333  0.0000E+00  0.4000E+01
    -15.317  0.0000E+00  0.4000E+01
    -15.300  0.0000E+00  0.4000E+01
    -15.283  0.0000E+00  0.4000E+01
    -15.267  0.0000E+00  0.4000E+01
    -15.250  0.0000E+00  0.4000E+01
    -15.233  0.0000E+00  0.4000E+01
    -15.217  0.0000E+00  0.4000E+01
    -15.200  0.0000E+00  0.4000E+01
    -15.183  0.0000E+00  0.4000E+01
    -15.167  0.0000E+00  0.4000E+01
    -15.150  0.0000E+00  0.4000E+01
    -15.133  0.0000E+00  0.4000E+01
    -15.117  0.0000E+00  0.4000E+01
    -15.100  0.0000E+00  0.4000E+01
    -15.083  0.0000E+00  0.4000E+01
    -15.067  0.0000E+00  0.4000E+01
    -15.050  0.0000E+00  0.4000E+01
    -15.033  0.0000E+00  0.4000E+01
    -15.017  0.0000E+00  0.4000E+01
    -15.000  0.0000E+00  0.4000E+01
    -14.983  0.0000E+00  0.4000E+01
    -14.967  0.0000E+00  0.4000E+01
    -14.950  0.0000E+00  0.4000E+01
    -14.933  0.0000E+00  0.4000E+01
    -14.917  0.0000E+00  0.4000E+01
    -14.900  0.0000E+00  0.4000E+01
    -14.883  0.0000E+00  0.4000E+01
    -14.867  0.0000E+00  0.4000E+01
    -14.850  0.0000E+00  0.4000E+01
    -14.833  0.0000E+00  0.4000E+01
    -14.817  0.0000E+00  0.4000E+01
    -14.800  0.0000E+00  0.4000E+01
    -14.783  0.0000E+00  0.4000E+01
    -14.767  0.0000E+00  0.4000E+01
    -14.750  0.0000E+00  0.4000E+01
    -14.733  0.0000E+00  0.4000E+01
    -14.717  0.0000E+00  0.4000E+01
    -14.700  0.0000E+00  0.4000E+01
    -14.683  0.0000E+00  0.4000E+01
    -14.667  0.0000E+00  0.4000E+01
    -14.650  0.0000E+00  0.4000E+01
    -14.633  0.0000E+00  0.4000E+01
    -14.617  0.0000E+00  0.4000E+01
    -14.600  0.0000E+00  0.4000E+01
    -14.583  0.0000E+00  0.4000E+01
    -14.567  0.0000E+00  0.4000E+01
    -14.550  0.0000E+00  0.4000E+01
    -14.533  0.0000E+00  0.4000E+01
    -14.517  0.0000E+00  0.4000E+01
    -14.500  0.0000E+00  0.4000E+01
    -14.483  0.0000E+00  0.4000E+01
    -14.467  0.0000E+00  0.4000E+01
    -14.450  0.0000E+00  0.4000E+01
    -14.433  0.0000E+00  0.4000E+01
    -14.417  0.0000E+00  0.4000E+01
    -14.400  0.0000E+00  0.4000E+01
    -14.383  0.0000E+00  0.4000E+01
    -14.367  0.0000E+00  0.4000E+01
    -14.350  0.0000E+00  0.4000E+01
    -14.333  0.0000E+00  0.4000E+01
    -14.317  0.0000E+00  0.4000E+01
    -14.300  0.0000E+00  0.4000E+01
    -14.283  0.0000E+00  0.4000E+01
    -14.267  0.0000E+00  0.4000E+01
    -14.250  0.0000E+00  0.4000E+01
    -14.233  0.0000E+00  0.4000E+01
    -14.217  0.0000E+00  0.4000E+01
    -14.200  0.0000E+00  0.4000E+01
    -14.183  0.0000E+00  0.4000E+01
    -14.167  0.0000E+00  0.4000E+01
    -14.150  0.0000E+00  0.4000E+01
    -14.133  0.0000E+00  0.4000E+01
    -14.117  0.0000E+00  0.4000E+01
    -14.100  0.0000E+00  0.4000E+01
    -14.083  0.0000E+00  0.4000E+01
    -14.067  0.0000E+00  0.4000E+01
    -14.050  0.0000E+00  0.4000E+01
    -14.033  0.0000E+00  0.4000E+01
    -14.017  0.0000E+00  0.4000E+01
    -14.000  0.0000E+00  0.4000E+01
    -13.983  0.0000E+00  0.4000E+01
    -13.967  0.0000E+00  0.4000E+01
    -13.950  0.0000E+00  0.4000E+01
    -13.933  0.0000E+00  0.4000E+01
    -13.917  0.0000E+00  0.4000E+01
    -13.900  0.0000E+00  0.4000E+01
    -13.883  0.0000E+00  0.4000E+01
    -13.867  0.0000E+00  0.4000E+01
    -13.850  0.0000E+00  0.4000E+01
    -13.833  0.0000E+00  0.4000E+01
    -13.817  0.0000E+00  0.4000E+01
    -13.800  0.0000E+00  0.4000E+01
    -13.783  0.0000E+00  0.4000E+01
    -13.767  0.0000E+00  0.4000E+01
    -13.750  0.0000E+00  0.4000E+01
    -13.733  0.0000E+00  0.4000E+01
    -13.717  0.0000E+00  0.4000E+01
    -13.700  0.0000E+00  0.4000E+01
    -13.683  0.0000E+00  0.4000E+01
    -13.667  0.0000E+00  0.4000E+01
    -13.650  0.0000E+00  0.4000E+01
    -13.633  0.0000E+00  0.4000E+01
    -13.617  0.0000E+00  0.4000E+01
    -13.600  0.0000E+00  0.4000E+01
    -13.583  0.0000E+00  0.4000E+01
    -13.567  0.0000E+00  0.4000E+01
    -13.550  0.0000E+00  0.4000E+01
    -13.533  0.0000E+00  0.4000E+01
    -13.517  0.0000E+00  0.4000E+01
    -13.500  0.0000E+00  0.4000E+01
    -13.483  0.0000E+00  0.4000E+01
    -13.467  0.0000E+00  0.4000E+01
    -13.450  0.0000E+00  0.4000E+01
    -13.433  0.0000E+00  0.4000E+01
    -13.417  0.0000E+00  0.4000E+01
    -13.400  0.0000E+00  0.4000E+01
    -13.383  0.0000E+00  0.4000E+01
    -13.367  0.0000E+00  0.4000E+01
    -13.350  0.0000E+00  0.4000E+01
    -13.333  0.0000E+00  0.4000E+01
    -13.317  0.0000E+00  0.4000E+01
    -13.300  0.0000E+00  0.4000E+01
    -13.283  0.0000E+00  0.4000E+01
    -13.267  0.0000E+00  0.4000E+01
    -13.250  0.0000E+00  0.4000E+01
    -13.233  0.0000E+00  0.4000E+01
    -13.217  0.0000E+00  0.4000E+01
    -13.200  0.0000E+00  0.4000E+01
    -13.183  0.0000E+00  0.4000E+01
    -13.167  0.0000E+00  0.4000E+01
    -13.150  0.0000E+00  0.4000E+01
    -13.133  0.0000E+00  0.4000E+01
    -13.117  0.0000E+00  0.4000E+01
    -13.100  0.0000E+00  0.4000E+01
    -13.083  0.0000E+00  0.4000E+01
    -13.067  0.0000E+00  0.4000E+01
    -13.050  0.0000E+00  0.4000E+01
    -13.033  0.0000E+00  0.4000E+01
    -13.017  0.0000E+00  0.4000E+01
    -13.000  0.0000E+00  0.4000E+01
    -12.983  0.0000E+00  0.4000E+01
    -12.967  0.0000E+00  0.4000E+01
    -12.950  0.0000E+00  0.4000E+01
    -12.933  0.0000E+00  0.4000E+01
    -12.917  0.0000E+00  0.4000E+01
    -12.900  0.0000E+00  0.4000E+01
    -12.883  0.0000E+00  0.4000E+01
    -12.867  0.0000E+00  0.4000E+01
    -12.850  0.0000E+00  0.4000E+01
    -12.833  0.0000E+00  0.4000E+01
    -12.817  0.0000E+00  0.4000E+01
    -12.800  0.0000E+00  0.4000E+01
    -12.783  0.0000E+00  0.4000E+01
    -12.767  0.0000E+00  0.4000E+01
    -12.750  0.0000E+00  0.4000E+01
    -12.733  0.0000E+00  0.4000E+01
    -12.717  0.0000E+00  0.4000E+01
    -12.700  0.0000E+00  0.4000E+01
    -12.683  0.0000E+00  0.4000E+01
    -12.667  0.0000E+00  0.4000E+01
    -12.650  0.0000E+00  0.4000E+01
    -12.633  0.0000E+00  0.4000E+01
    -12.617  0.0000E+00  0.4000E+01
    -12.600  0.0000E+00  0.4000E+01
    -12.583  0.0000E+00  0.4000E+01
    -12.567  0.0000E+00  0.4000E+01
    -12.550  0.0000E+00  0.4000E+01
    -12.533  0.0000E+00  0.4000E+01
    -12.517  0.0000E+00  0.4000E+01
    -12.500  0.0000E+00  0.4000E+01
    -12.483  0.0000E+00  0.4000E+01
    -12.467  0.0000E+00  0.4000E+01
    -12.450  0.0000E+00  0.4000E+01
    -12.433  0.0000E+00  0.4000E+01
    -12.417  0.0000E+00  0.4000E+01
    -12.400  0.0000E+00  0.4000E+01
    -12.383  0.0000E+00  0.4000E+01
    -12.367  0.0000E+00  0.4000E+01
    -12.350  0.0000E+00  0.4000E+01
    -12.333  0.0000E+00  0.4000E+01
    -12.317  0.0000E+00  0.4000E+01
    -12.300  0.0000E+00  0.4000E+01
    -12.283  0.0000E+00  0.4000E+01
    -12.267  0.0000E+00  0.4000E+01
    -12.250  0.0000E+00  0.4000E+01
    -12.233  0.0000E+00  0.4000E+01
    -12.217  0.0000E+00  0.4000E+01
    -12.200  0.0000E+00  0.4000E+01
    -12.183  0.0000E+00  0.4000E+01
    -12.167  0.0000E+00  0.4000E+01
    -12.150  0.0000E+00  0.4000E+01
    -12.133  0.0000E+00  0.4000E+01
    -12.117  0.0000E+00  0.4000E+01
    -12.100  0.0000E+00  0.4000E+01
    -12.083  0.0000E+00  0.4000E+01
    -12.067  0.0000E+00  0.4000E+01
    -12.050  0.0000E+00  0.4000E+01
    -12.033  0.0000E+00  0.4000E+01
    -12.017  0.0000E+00  0.4000E+01
    -12.000  0.0000E+00  0.4000E+01
    -11.983  0.0000E+00  0.4000E+01
    -11.967  0.0000E+00  0.4000E+01
    -11.950  0.0000E+00  0.4000E+01
    -11.933  0.0000E+00  0.4000E+01
    -11.917  0.0000E+00  0.4000E+01
    -11.900  0.0000E+00  0.4000E+01
    -11.883  0.0000E+00  0.4000E+01
    -11.867  0.0000E+00  0.4000E+01
    -11.850  0.0000E+00  0.4000E+01
    -11.833  0.0000E+00  0.4000E+01
    -11.817  0.0000E+00  0.4000E+01
    -11.800  0.0000E+00  0.4000E+01
    -11.783  0.0000E+00  0.4000E+01
    -11.767  0.0000E+00  0.4000E+01
    -11.750  0.0000E+00  0.4000E+01
    -11.733  0.0000E+00  0.4000E+01
    -11.717  0.0000E+00  0.4000E+01
    -11.700  0.0000E+00  0.4000E+01
    -11.683  0.0000E+00  0.4000E+01
    -11.667  0.0000E+00  0.4000E+01
    -11.650  0.0000E+00  0.4000E+01
    -11.633  0.0000E+00  0.4000E+01
    -11.617  0.0000E+00  0.4000E+01
    -11.600  0.0000E+00  0.4000E+01
    -11.583  0.0000E+00  0.4000E+01
    -11.567  0.0000E+00  0.4000E+01
    -11.550  0.0000E+00  0.4000E+01
    -11.533  0.0000E+00  0.4000E+01
    -11.517  0.0000E+00  0.4000E+01
    -11.500  0.0000E+00  0.4000E+01
    -11.483  0.0000E+00  0.4000E+01
    -11.467  0.0000E+00  0.4000E+01
    -11.450  0.0000E+00  0.4000E+01
    -11.433  0.0000E+00  0.4000E+01
    -11.417  0.0000E+00  0.4000E+01
    -11.400  0.0000E+00  0.4000E+01
    -11.383  0.0000E+00  0.4000E+01
    -11.367  0.0000E+00  0.4000E+01
    -11.350  0.0000E+00  0.4000E+01
    -11.333  0.0000E+00  0.4000E+01
    -11.317  0.0000E+00  0.4000E+01
    -11.300  0.0000E+00  0.4000E+01
    -11.283  0.0000E+00  0.4000E+01
    -11.267  0.0000E+00  0.4000E+01
    -11.250  0.0000E+00  0.4000E+01
    -11.233  0.0000E+00  0.4000E+01
    -11.217  0.0000E+00  0.4000E+01
    -11.200  0.0000E+00  0.4000E+01
    -11.183  0.0000E+00  0.4000E+01
    -11.167  0.0000E+00  0.4000E+01
    -11.150  0.0000E+00  0.4000E+01
    -11.133  0.0000E+00  0.4000E+01
    -11.117  0.0000E+00  0.4000E+01
    -11.100  0.0000E+00  0.4000E+01
    -11.083  0.0000E+00  0.4000E+01
    -11.067  0.0000E+00  0.4000E+01
    -11.050  0.0000E+00  0.4000E+01
    -11.033  0.0000E+00  0.4000E+01
    -11.017  0.0000E+00  0.4000E+01
    -11.000  0.0000E+00  0.4000E+01
    -10.983  0.0000E+00  0.4000E+01
    -10.967  0.0000E+00  0.4000E+01
    -10.950  0.0000E+00  0.4000E+01
    -10.933  0.0000E+00  0.4000E+01
    -10.917  0.0000E+00  0.4000E+01
    -10.900  0.0000E+00  0.4000E+01
    -10.883  0.0000E+00  0.4000E+01
    -10.867  0.0000E+00  0.4000E+01
    -10.850  0.0000E+00  0.4000E+01
    -10.833  0.0000E+00  0.4000E+01
    -10.817  0.0000E+00  0.4000E+01
    -10.800  0.0000E+00  0.4000E+01
    -10.783  0.0000E+00  0.4000E+01
    -10.767  0.0000E+00  0.4000E+01
    -10.750  0.0000E+00  0.4000E+01
    -10.733  0.0000E+00  0.4000E+01
    -10.717  0.0000E+00  0.4000E+01
    -10.700  0.0000E+00  0.4000E+01
    -10.683  0.0000E+00  0.4000E+01
    -10.667  0.0000E+00  0.4000E+01
    -10.650  0.0000E+00  0.4000E+01
    -10.633  0.0000E+00  0.4000E+01
    -10.617  0.0000E+00  0.4000E+01
    -10.600  0.0000E+00  0.4000E+01
    -10.583  0.0000E+00  0.4000E+01
    -10.567  0.0000E+00  0.4000E+01
    -10.550  0.0000E+00  0.4000E+01
    -10.533  0.0000E+00  0.4000E+01
    -10.517  0.0000E+00  0.4000E+01
    -10.500  0.0000E+00  0.4000E+01
    -10.483  0.0000E+00  0.4000E+01
    -10.467  0.0000E+00  0.4000E+01
    -10.450  0.0000E+00  0.4000E+01
    -10.433  0.0000E+00  0.4000E+01
    -10.417  0.0000E+00  0.4000E+01
    -10.400  0.0000E+00  0.4000E+01
    -10.383  0.0000E+00  0.4000E+01
    -10.367  0.0000E+00  0.4000E+01
    -10.350  0.0000E+00  0.4000E+01
    -10.333  0.0000E+00  0.4000E+01
    -10.317  0.0000E+00  0.4000E+01
    -10.300  0.0000E+00  0.4000E+01
    -10.283  0.0000E+00  0.4000E+01
    -10.267  0.0000E+00  0.4000E+01
    -10.250  0.0000E+00  0.4000E+01
    -10.233  0.0000E+00  0.4000E+01
    -10.217  0.0000E+00  0.4000E+01
    -10.200  0.0000E+00  0.4000E+01
    -10.183  0.0000E+00  0.4000E+01
    -10.167  0.0000E+00  0.4000E+01
    -10.150  0.0000E+00  0.4000E+01
    -10.133  0.0000E+00  0.4000E+01
    -10.117  0.0000E+00  0.4000E+01
    -10.100  0.0000E+00  0.4000E+01
    -10.083  0.0000E+00  0.4000E+01
    -10.067  0.0000E+00  0.4000E+01
    -10.050  0.0000E+00  0.4000E+01
    -10.033  0.0000E+00  0.4000E+01
    -10.017  0.0000E+00  0.4000E+01
    -10.000  0.0000E+00  0.4000E+01
     -9.983  0.0000E+00  0.4000E+01
     -9.967  0.0000E+00  0.4000E+01
     -9.950  0.0000E+00  0.4000E+01
     -9.933  0.0000E+00  0.4000E+01
     -9.917  0.0000E+00  0.4000E+01
     -9.900  0.0000E+00  0.4000E+01
     -9.883  0.0000E+00  0.4000E+01
     -9.867  0.0000E+00  0.4000E+01
     -9.850  0.0000E+00  0.4000E+01
     -9.833  0.0000E+00  0.4000E+01
     -9.817  0.0000E+00  0.4000E+01
     -9.800  0.0000E+00  0.4000E+01
     -9.783  0.0000E+00  0.4000E+01
     -9.767  0.0000E+00  0.4000E+01
     -9.750  0.0000E+00  0.4000E+01
     -9.733  0.0000E+00  0.4000E+01
     -9.717  0.0000E+00  0.4000E+01
     -9.700  0.0000E+00  0.4000E+01
     -9.683  0.0000E+00  0.4000E+01
     -9.667  0.0000E+00  0.4000E+01
     -9.650  0.0000E+00  0.4000E+01
     -9.633  0.0000E+00  0.4000E+01
     -9.617  0.0000E+00  0.4000E+01
     -9.600  0.0000E+00  0.4000E+01
     -9.583  0.0000E+00  0.4000E+01
     -9.567  0.0000E+00  0.4000E+01
     -9.550  0.0000E+00  0.4000E+01
     -9.533  0.0000E+00  0.4000E+01
     -9.517  0.0000E+00  0.4000E+01
     -9.500  0.0000E+00  0.4000E+01
     -9.483  0.0000E+00  0.4000E+01
     -9.467  0.0000E+00  0.4000E+01
     -9.450  0.0000E+00  0.4000E+01
     -9.433  0.0000E+00  0.4000E+01
     -9.417  0.0000E+00  0.4000E+01
     -9.400  0.0000E+00  0.4000E+01
     -9.383  0.0000E+00  0.4000E+01
     -9.367  0.0000E+00  0.4000E+01
     -9.350  0.0000E+00  0.4000E+01
     -9.333  0.0000E+00  0.4000E+01
     -9.317  0.0000E+00  0.4000E+01
     -9.300  0.0000E+00  0.4000E+01
     -9.283  0.0000E+00  0.4000E+01
     -9.267  0.0000E+00  0.4000E+01
     -9.250  0.0000E+00  0.4000E+01
     -9.233  0.0000E+00  0.4000E+01
     -9.217  0.0000E+00  0.4000E+01
     -9.200  0.0000E+00  0.4000E+01
     -9.183  0.0000E+00  0.4000E+01
     -9.167  0.0000E+00  0.4000E+01
     -9.150  0.0000E+00  0.4000E+01
     -9.133  0.0000E+00  0.4000E+01
     -9.117  0.0000E+00  0.4000E+01
     -9.100  0.0000E+00  0.4000E+01
     -9.083  0.0000E+00  0.4000E+01
     -9.067  0.0000E+00  0.4000E+01
     -9.050  0.0000E+00  0.4000E+01
     -9.033  0.0000E+00  0.4000E+01
     -9.017  0.0000E+00  0.4000E+01
     -9.000  0.0000E+00  0.4000E+01
     -8.983  0.0000E+00  0.4000E+01
     -8.967  0.0000E+00  0.4000E+01
     -8.950  0.0000E+00  0.4000E+01
     -8.933  0.0000E+00  0.4000E+01
     -8.917  0.0000E+00  0.4000E+01
     -8.900  0.0000E+00  0.4000E+01
     -8.883  0.0000E+00  0.4000E+01
     -8.867  0.0000E+00  0.4000E+01
     -8.850  0.0000E+00  0.4000E+01
     -8.833  0.0000E+00  0.4000E+01
     -8.817  0.0000E+00  0.4000E+01
     -8.800  0.0000E+00  0.4000E+01
     -8.783  0.0000E+00  0.4000E+01
     -8.767  0.0000E+00  0.4000E+01
     -8.750  0.0000E+00  0.4000E+01
     -8.733  0.0000E+00  0.4000E+01
     -8.717  0.0000E+00  0.4000E+01
     -8.700  0.0000E+00  0.4000E+01
     -8.683  0.0000E+00  0.4000E+01
     -8.667  0.0000E+00  0.4000E+01
     -8.650  0.0000E+00  0.4000E+01
     -8.633  0.0000E+00  0.4000E+01
     -8.617  0.0000E+00  0.4000E+01
     -8.600  0.0000E+00  0.4000E+01
     -8.583  0.0000E+00  0.4000E+01
     -8.567  0.0000E+00  0.4000E+01
     -8.550  0.0000E+00  0.4000E+01
     -8.533  0.0000E+00  0.4000E+01
     -8.517  0.0000E+00  0.4000E+01
     -8.500  0.0000E+00  0.4000E+01
     -8.483  0.0000E+00  0.4000E+01
     -8.467  0.0000E+00  0.4000E+01
     -8.450  0.0000E+00  0.4000E+01
     -8.433  0.0000E+00  0.4000E+01
     -8.417  0.0000E+00  0.4000E+01
     -8.400  0.0000E+00  0.4000E+01
     -8.383  0.0000E+00  0.4000E+01
     -8.367  0.0000E+00  0.4000E+01
     -8.350  0.0000E+00  0.4000E+01
     -8.333  0.0000E+00  0.4000E+01
     -8.317  0.0000E+00  0.4000E+01
     -8.300  0.0000E+00  0.4000E+01
     -8.283  0.0000E+00  0.4000E+01
     -8.267  0.0000E+00  0.4000E+01
     -8.250  0.0000E+00  0.4000E+01
     -8.233  0.0000E+00  0.4000E+01
     -8.217  0.0000E+00  0.4000E+01
     -8.200  0.0000E+00  0.4000E+01
     -8.183  0.0000E+00  0.4000E+01
     -8.167  0.0000E+00  0.4000E+01
     -8.150  0.0000E+00  0.4000E+01
     -8.133  0.0000E+00  0.4000E+01
     -8.117  0.0000E+00  0.4000E+01
     -8.100  0.0000E+00  0.4000E+01
     -8.083  0.0000E+00  0.4000E+01
     -8.067  0.0000E+00  0.4000E+01
     -8.050  0.0000E+00  0.4000E+01
     -8.033  0.0000E+00  0.4000E+01
     -8.017  0.0000E+00  0.4000E+01
     -8.000  0.0000E+00  0.4000E+01
     -7.983  0.0000E+00  0.4000E+01
     -7.967  0.0000E+00  0.4000E+01
     -7.950  0.0000E+00  0.4000E+01
     -7.933  0.0000E+00  0.4000E+01
     -7.917  0.0000E+00  0.4000E+01
     -7.900  0.0000E+00  0.4000E+01
     -7.883  0.0000E+00  0.4000E+01
     -7.867  0.0000E+00  0.4000E+01
     -7.850  0.0000E+00  0.4000E+01
     -7.833  0.0000E+00  0.4000E+01
     -7.817  0.0000E+00  0.4000E+01
     -7.800  0.0000E+00  0.4000E+01
     -7.783  0.0000E+00  0.4000E+01
     -7.767  0.0000E+00  0.4000E+01
     -7.750  0.0000E+00  0.4000E+01
     -7.733  0.0000E+00  0.4000E+01
     -7.717  0.0000E+00  0.4000E+01
     -7.700  0.0000E+00  0.4000E+01
     -7.683  0.0000E+00  0.4000E+01
     -7.667  0.0000E+00  0.4000E+01
     -7.650  0.0000E+00  0.4000E+01
     -7.633  0.0000E+00  0.4000E+01
     -7.617  0.0000E+00  0.4000E+01
     -7.600  0.0000E+00  0.4000E+01
     -7.583  0.0000E+00  0.4000E+01
     -7.567  0.0000E+00  0.4000E+01
     -7.550  0.0000E+00  0.4000E+01
     -7.533  0.0000E+00  0.4000E+01
     -7.517  0.0000E+00  0.4000E+01
     -7.500  0.0000E+00  0.4000E+01
     -7.483  0.0000E+00  0.4000E+01
     -7.467  0.0000E+00  0.4000E+01
     -7.450  0.0000E+00  0.4000E+01
     -7.433  0.0000E+00  0.4000E+01
     -7.417  0.0000E+00  0.4000E+01
     -7.400  0.0000E+00  0.4000E+01
     -7.383  0.0000E+00  0.4000E+01
     -7.367  0.0000E+00  0.4000E+01
     -7.350  0.0000E+00  0.4000E+01
     -7.333  0.0000E+00  0.4000E+01
     -7.317  0.0000E+00  0.4000E+01
     -7.300  0.0000E+00  0.4000E+01
     -7.283  0.0000E+00  0.4000E+01
     -7.267  0.0000E+00  0.4000E+01
     -7.250  0.0000E+00  0.4000E+01
     -7.233  0.0000E+00  0.4000E+01
     -7.217  0.0000E+00  0.4000E+01
     -7.200  0.0000E+00  0.4000E+01
     -7.183  0.0000E+00  0.4000E+01
     -7.167  0.0000E+00  0.4000E+01
     -7.150  0.0000E+00  0.4000E+01
     -7.133  0.0000E+00  0.4000E+01
     -7.117  0.0000E+00  0.4000E+01
     -7.100  0.0000E+00  0.4000E+01
     -7.083  0.0000E+00  0.4000E+01
     -7.067  0.0000E+00  0.4000E+01
     -7.050  0.0000E+00  0.4000E+01
     -7.033  0.0000E+00  0.4000E+01
     -7.017  0.0000E+00  0.4000E+01
     -7.000  0.0000E+00  0.4000E+01
     -6.983  0.0000E+00  0.4000E+01
     -6.967  0.0000E+00  0.4000E+01
     -6.950  0.0000E+00  0.4000E+01
     -6.933  0.0000E+00  0.4000E+01
     -6.917  0.0000E+00  0.4000E+01
     -6.900  0.0000E+00  0.4000E+01
     -6.883  0.0000E+00  0.4000E+01
     -6.867  0.0000E+00  0.4000E+01
     -6.850  0.0000E+00  0.4000E+01
     -6.833  0.0000E+00  0.4000E+01
     -6.817  0.0000E+00  0.4000E+01
     -6.800  0.0000E+00  0.4000E+01
     -6.783  0.0000E+00  0.4000E+01
     -6.767  0.0000E+00  0.4000E+01
     -6.750  0.0000E+00  0.4000E+01
     -6.733  0.0000E+00  0.4000E+01
     -6.717  0.0000E+00  0.4000E+01
     -6.700  0.0000E+00  0.4000E+01
     -6.683  0.0000E+00  0.4000E+01
     -6.667  0.0000E+00  0.4000E+01
     -6.650  0.0000E+00  0.4000E+01
     -6.633  0.0000E+00  0.4000E+01
     -6.617  0.0000E+00  0.4000E+01
     -6.600  0.0000E+00  0.4000E+01
     -6.583  0.0000E+00  0.4000E+01
     -6.567  0.0000E+00  0.4000E+01
     -6.550  0.0000E+00  0.4000E+01
     -6.533  0.0000E+00  0.4000E+01
     -6.517  0.0000E+00  0.4000E+01
     -6.500  0.0000E+00  0.4000E+01
     -6.483  0.0000E+00  0.4000E+01
     -6.467  0.0000E+00  0.4000E+01
     -6.450  0.0000E+00  0.4000E+01
     -6.433  0.0000E+00  0.4000E+01
     -6.417  0.0000E+00  0.4000E+01
     -6.400  0.0000E+00  0.4000E+01
     -6.383  0.0000E+00  0.4000E+01
     -6.367  0.0000E+00  0.4000E+01
     -6.350  0.0000E+00  0.4000E+01
     -6.333  0.0000E+00  0.4000E+01
     -6.317  0.0000E+00  0.4000E+01
     -6.300  0.0000E+00  0.4000E+01
     -6.283  0.0000E+00  0.4000E+01
     -6.267  0.0000E+00  0.4000E+01
     -6.250  0.0000E+00  0.4000E+01