    6    6    1    1
  0.1337478E+02  0.4313329E-09  0.4313329E-09  0.4313329E-09  0.5000000E-15
  1.000000000000000E-004
  CAR 
 unknown system                          
     56      4     36
 
  0.0000000E+00  0.0000000E+00  0.0000000E+00  0.3703704E-01
    1      -17.729541   1.000000
    2      -17.052385   1.000000
    3       -4.805033   1.000000
    4       -4.805033   1.000000
    5       -4.805033   1.000000
    6       -2.490560   1.000000
    7       -2.462358   1.000000
    8       -2.462358   1.000000
    9       -2.462358   1.000000
   10       -0.736620   1.000000
   11       -0.736620   1.000000
   12       -0.596072   1.000000
   13       -0.596072   1.000000
   14       -0.596072   1.000000
   15        0.197022   1.000000
   16        0.197022   1.000000
   17        0.312658   1.000000
   18        0.312658   1.000000
   19        0.312658   1.000000
   20        0.424689   1.000000
   21        0.424689   1.000000
   22        0.424689   1.000000
   23        0.632429   1.000000
   24        0.632429   1.000000
   25        0.632429   1.000000
   26        2.135713   0.999752
   27        2.135713   0.999752
   28        2.135713   0.999752
   29        2.606583   0.000745
   30        3.508717   0.000000
   31        3.508717   0.000000
   32        9.852572   0.000000
   33        9.852578   0.000000
   34        9.852877   0.000000
   35       11.356337   0.000000
   36       11.356378   0.000000
 
  0.3333333E+00  0.0000000E+00  0.0000000E+00  0.2222222E+00
    1      -17.557658   1.000000
    2      -17.218489   1.000000
    3       -4.537637   1.000000
    4       -4.441257   1.000000
    5       -4.441257   1.000000
    6       -3.657153   1.000000
    7       -3.200294   1.000000
    8       -3.200294   1.000000
    9       -1.596622   1.000000
   10       -0.665094   1.000000
   11       -0.548071   1.000000
   12       -0.325867   1.000000
   13       -0.124592   1.000000
   14       -0.124592   1.000000
   15        0.024403   1.000000
   16        0.101447   1.000000
   17        0.158376   1.000000
   18        0.265674   1.000000
   19        0.297145   1.000000
   20        0.297145   1.000000
   21        0.411575   1.000000
   22        0.486364   1.000000
   23        0.539909   1.000000
   24        0.539909   1.000000
   25        0.770453   1.000000
   26        0.770453   1.000000
   27        1.907849   1.000000
   28        1.907849   1.000000
   29        3.494383   0.000000
   30        4.843422   0.000000
   31        4.952096   0.000000
   32        8.124545   0.000000
   33        9.486135   0.000000
   34        9.488006   0.000000
   35        9.662242   0.000000
   36       10.037197   0.000000
 
  0.3333333E+00  0.3333333E+00  0.0000000E+00  0.4444444E+00
    1      -17.461299   1.000000
    2      -17.291045   1.000000
    3       -4.890966   1.000000
    4       -4.603885   1.000000
    5       -3.982448   1.000000
    6       -3.798918   1.000000
    7       -3.392788   1.000000
    8       -3.036875   1.000000
    9       -1.211999   1.000000
   10       -0.522197   1.000000
   11       -0.492687   1.000000
   12       -0.359159   1.000000
   13       -0.180935   1.000000
   14       -0.109775   1.000000
   15       -0.038352   1.000000
   16       -0.029430   1.000000
   17        0.087394   1.000000
   18        0.176355   1.000000
   19        0.243706   1.000000
   20        0.344006   1.000000
   21        0.401089   1.000000
   22        0.404589   1.000000
   23        0.596536   1.000000
   24        0.803535   1.000000
   25        0.806767   1.000000
   26        0.859752   1.000000
   27        1.527042   1.000000
   28        1.725494   1.000000
   29        3.934100   0.000000
   30        4.540105   0.000000
   31        5.673386   0.000000
   32        6.493740   0.000000
   33        8.728222   0.000000
   34        9.128348   0.000000
   35        9.205274   0.000000
   36       10.526035   0.000000
 
  0.3333333E+00  0.3333333E+00  0.3333333E+00  0.2962963E+00
    1      -17.510355   1.000000
    2      -17.211667   1.000000
    3       -4.681973   1.000000
    4       -4.681973   1.000000
    5       -4.622807   1.000000
    6       -3.379782   1.000000
    7       -3.272899   1.000000
    8       -3.272899   1.000000
    9       -1.048916   1.000000
   10       -0.710993   1.000000
   11       -0.710993   1.000000
   12       -0.191041   1.000000
   13       -0.191041   1.000000
   14       -0.044725   1.000000
   15       -0.044725   1.000000
   16        0.066763   1.000000
   17        0.090101   1.000000
   18        0.205005   1.000000
   19        0.205005   1.000000
   20        0.450302   1.000000
   21        0.469529   1.000000
   22        0.469529   1.000000
   23        0.525234   1.000000
   24        0.525234   1.000000
   25        0.959635   1.000000
   26        1.399852   1.000000
   27        1.399852   1.000000
   28        1.440406   1.000000
   29        4.450645   0.000000
   30        5.217028   0.000000
   31        5.217028   0.000000
   32        6.163006   0.000000
   33        6.957235   0.000000
   34        6.957235   0.000000
   35       11.163490   0.000000
   36       11.533386   0.000000
