unknown system                          
   1.00000000000000     
     4.313329    0.000000    0.000000
     0.000000    4.313329    0.000000
     0.000000    0.000000    4.313329
   Cu   O 
     4     2
Direct
  0.250000  0.250000  0.250000
  0.750000  0.750000  0.250000
  0.750000  0.250000  0.750000
  0.250000  0.750000  0.750000
  0.000000  0.000000  0.000000
  0.500000  0.500000  0.500000
 
   28   28   28
 0.30554     0.41755     0.64769     0.78729     0.81333     0.73950     0.54321     0.31681     0.17247     0.11620    
 0.10143     0.99938E-01 0.10861     0.11914     0.12340     0.11914     0.10861     0.99938E-01 0.10143     0.11620    
 0.17247     0.31681     0.54321     0.73950     0.81333     0.78729     0.64769     0.41755     0.41755     0.51340    
 0.69409     0.79997     0.81164     0.72487     0.51721     0.29609     0.16430     0.11600     0.10445     0.10393    
 0.11186     0.12020     0.12310     0.12020     0.11186     0.10393     0.10445     0.11600     0.16430     0.29609    
 0.51721     0.72487     0.81164     0.79997     0.69409     0.51340     0.64769     0.69409     0.77632     0.81953    
 0.79602     0.66764     0.43490     0.23936     0.14331     0.11480     0.11123     0.11363     0.12037     0.12391    
 0.12377     0.12391     0.12037     0.11363     0.11123     0.11480     0.14331     0.23936     0.43490     0.66764    
 0.79602     0.81953     0.77632     0.69409     0.78729     0.79997     0.81953     0.81169     0.73390     0.53860    
 0.30982     0.17335     0.12275     0.11505     0.11946     0.12546     0.13127     0.12995     0.12681     0.12995    
 0.13127     0.12546     0.11946     0.11505     0.12275     0.17335     0.30982     0.53860     0.73390     0.81169    
 0.81953     0.79997     0.81333     0.81164     0.79602     0.73390     0.57632     0.35494     0.19814     0.13101    
 0.11627     0.12214     0.13052     0.13802     0.14165     0.13611     0.13098     0.13611     0.14165     0.13802    
 0.13052     0.12214     0.11627     0.13101     0.19814     0.35494     0.57632     0.73390     0.79602     0.81164    
 0.73950     0.72487     0.66764     0.53860     0.35494     0.20859     0.13816     0.11970     0.12594     0.13692    
 0.14490     0.15031     0.14951     0.14049     0.13453     0.14049     0.14951     0.15031     0.14490     0.13692    
 0.12594     0.11970     0.13816     0.20859     0.35494     0.53860     0.66764     0.72487     0.54321     0.51721    
 0.43490     0.30982     0.19814     0.13816     0.12180     0.12971     0.14417     0.15439     0.15955     0.16041    
 0.15424     0.14272     0.13668     0.14272     0.15424     0.16041     0.15955     0.15439     0.14417     0.12971    
 0.12180     0.13816     0.19814     0.30982     0.43490     0.51721     0.31681     0.29609     0.23936     0.17335    
 0.13101     0.11970     0.12971     0.14727     0.16148     0.16899     0.17074     0.16692     0.15649     0.14339    
 0.13738     0.14339     0.15649     0.16692     0.17074     0.16899     0.16148     0.14727     0.12971     0.11970    
 0.13101     0.17335     0.23936     0.29609     0.17247     0.16430     0.14331     0.12275     0.11627     0.12594    
 0.14417     0.16148     0.17300     0.17778     0.17632     0.16944     0.15699     0.14297     0.13668     0.14297    
 0.15699     0.16944     0.17632     0.17778     0.17300     0.16148     0.14417     0.12594     0.11627     0.12275    
 0.14331     0.16430     0.11620     0.11600     0.11480     0.11505     0.12214     0.13692     0.15439     0.16899    
 0.17778     0.17975     0.17595     0.16805     0.15564     0.14126     0.13453     0.14126     0.15564     0.16805    
 0.17595     0.17975     0.17778     0.16899     0.15439     0.13692     0.12214     0.11505     0.11480     0.11600    
 0.10143     0.10445     0.11123     0.11946     0.13052     0.14490     0.15955     0.17074     0.17632     0.17595    
 0.17108     0.16333     0.15169     0.13772     0.13098     0.13772     0.15169     0.16333     0.17108     0.17595    
 0.17632     0.17074     0.15955     0.14490     0.13052     0.11946     0.11123     0.10445     0.99938E-01 0.10393    
 0.11363     0.12546     0.13802     0.15031     0.16041     0.16692     0.16944     0.16805     0.16333     0.15572    
 0.14468     0.13247     0.12681     0.13247     0.14468     0.15572     0.16333     0.16805     0.16944     0.16692    
 0.16041     0.15031     0.13802     0.12546     0.11363     0.10393     0.10861     0.11186     0.12037     0.13127    
 0.14165     0.14951     0.15424     0.15649     0.15699     0.15564     0.15169     0.14468     0.13549     0.12717    
 0.12377     0.12717     0.13549     0.14468     0.15169     0.15564     0.15699     0.15649     0.15424     0.14951    
 0.14165     0.13127     0.12037     0.11186     0.11914     0.12020     0.12391     0.12995     0.13611     0.14049    
 0.14272     0.14339     0.14297     0.14126     0.13772     0.13247     0.12717     0.12396     0.12310     0.12396    
 0.12717     0.13247     0.13772     0.14126     0.14297     0.14339     0.14272     0.14049     0.13611     0.12995    
 0.12391     0.12020     0.12340     0.12310     0.12377     0.12681     0.13098     0.13453     0.13668     0.13738    
 0.13668     0.13453     0.13098     0.12681     0.12377     0.12310     0.12340     0.12310     0.12377     0.12681    
 0.13098     0.13453     0.13668     0.13738     0.13668     0.13453     0.13098     0.12681     0.12377     0.12310    
 0.11914     0.12020     0.12391     0.12995     0.13611     0.14049     0.14272     0.14339     0.14297     0.14126    
 0.13772     0.13247     0.12717     0.12396     0.12310     0.12396     0.12717     0.13247     0.13772     0.14126    
 0.14297     0.14339     0.14272     0.14049     0.13611     0.12995     0.12391     0.12020     0.10861     0.11186    
 0.12037     0.13127     0.14165     0.14951     0.15424     0.15649     0.15699     0.15564     0.15169     0.14468    
 0.13549     0.12717     0.12377     0.12717     0.13549     0.14468     0.15169     0.15564     0.15699     0.15649    
 0.15424     0.14951     0.14165     0.13127     0.12037     0.11186     0.99938E-01 0.10393     0.11363     0.12546    
 0.13802     0.15031     0.16041     0.16692     0.16944     0.16805     0.16333     0.15572     0.14468     0.13247    
 0.12681     0.13247     0.14468     0.15572     0.16333     0.16805     0.16944     0.16692     0.16041     0.15031    
 0.13802     0.12546     0.11363     0.10393     0.10143     0.10445     0.11123     0.11946     0.13052     0.14490    
 0.15955     0.17074     0.17632     0.17595     0.17108     0.16333     0.15169     0.13772     0.13098     0.13772    
 0.15169     0.16333     0.17108     0.17595     0.17632     0.17074     0.15955     0.14490     0.13052     0.11946    
 0.11123     0.10445     0.11620     0.11600     0.11480     0.11505     0.12214     0.13692     0.15439     0.16899    
 0.17778     0.17975     0.17595     0.16805     0.15564     0.14126     0.13453     0.14126     0.15564     0.16805    
 0.17595     0.17975     0.17778     0.16899     0.15439     0.13692     0.12214     0.11505     0.11480     0.11600    
 0.17247     0.16430     0.14331     0.12275     0.11627     0.12594     0.14417     0.16148     0.17300     0.17778    
 0.17632     0.16944     0.15699     0.14297     0.13668     0.14297     0.15699     0.16944     0.17632     0.17778    
 0.17300     0.16148     0.14417     0.12594     0.11627     0.12275     0.14331     0.16430     0.31681     0.29609    
 0.23936     0.17335     0.13101     0.11970     0.12971     0.14727     0.16148     0.16899     0.17074     0.16692    
 0.15649     0.14339     0.13738     0.14339     0.15649     0.16692     0.17074     0.16899     0.16148     0.14727    
 0.12971     0.11970     0.13101     0.17335     0.23936     0.29609     0.54321     0.51721     0.43490     0.30982    
 0.19814     0.13816     0.12180     0.12971     0.14417     0.15439     0.15955     0.16041     0.15424     0.14272    
 0.13668     0.14272     0.15424     0.16041     0.15955     0.15439     0.14417     0.12971     0.12180     0.13816    
 0.19814     0.30982     0.43490     0.51721     0.73950     0.72487     0.66764     0.53860     0.35494     0.20859    
 0.13816     0.11970     0.12594     0.13692     0.14490     0.15031     0.14951     0.14049     0.13453     0.14049    
 0.14951     0.15031     0.14490     0.13692     0.12594     0.11970     0.13816     0.20859     0.35494     0.53860    
 0.66764     0.72487     0.81333     0.81164     0.79602     0.73390     0.57632     0.35494     0.19814     0.13101    
 0.11627     0.12214     0.13052     0.13802     0.14165     0.13611     0.13098     0.13611     0.14165     0.13802    
 0.13052     0.12214     0.11627     0.13101     0.19814     0.35494     0.57632     0.73390     0.79602     0.81164    
 0.78729     0.79997     0.81953     0.81169     0.73390     0.53860     0.30982     0.17335     0.12275     0.11505    
 0.11946     0.12546     0.13127     0.12995     0.12681     0.12995     0.13127     0.12546     0.11946     0.11505    
 0.12275     0.17335     0.30982     0.53860     0.73390     0.81169     0.81953     0.79997     0.64769     0.69409    
 0.77632     0.81953     0.79602     0.66764     0.43490     0.23936     0.14331     0.11480     0.11123     0.11363    
 0.12037     0.12391     0.12377     0.12391     0.12037     0.11363     0.11123     0.11480     0.14331     0.23936    
 0.43490     0.66764     0.79602     0.81953     0.77632     0.69409     0.41755     0.51340     0.69409     0.79997    
 0.81164     0.72487     0.51721     0.29609     0.16430     0.11600     0.10445     0.10393     0.11186     0.12020    
 0.12310     0.12020     0.11186     0.10393     0.10445     0.11600     0.16430     0.29609     0.51721     0.72487    
 0.81164     0.79997     0.69409     0.51340     0.41755     0.51340     0.69409     0.79996     0.81166     0.72480    
 0.51735     0.29595     0.16440     0.11593     0.10451     0.10387     0.11190     0.12017     0.12310     0.12022    
 0.11181     0.10398     0.10440     0.11607     0.16420     0.29624     0.51707     0.72494     0.81162     0.79997    
 0.69409     0.51340     0.51340     0.59912     0.74087     0.81913     0.81572     0.70546     0.47045     0.25716    
 0.15008     0.11733     0.11348     0.11540     0.12120     0.12451     0.12398     0.11975     0.10922     0.98783E-01
 0.98439E-01 0.11108     0.16003     0.29060     0.50366     0.70728     0.79991     0.79913     0.71814     0.58152    
 0.69409     0.74087     0.80777     0.83670     0.79480     0.62151     0.36001     0.19227     0.12817     0.11664    
 0.12195     0.12874     0.13502     0.13380     0.12718     0.12104     0.11159     0.10098     0.98885E-01 0.10729    
 0.14386     0.25020     0.44206     0.65388     0.77587     0.80564     0.77612     0.71814     0.79996     0.81913    
 0.83670     0.81773     0.70228     0.45275     0.23866     0.14492     0.12057     0.12476     0.13401     0.14228    
 0.14882     0.14490     0.13247     0.12358     0.11665     0.10811     0.10427     0.10656     0.12515     0.19282    
 0.34187     0.54906     0.71561     0.78977     0.80563     0.79912     0.81166     0.81572     0.79480     0.70228    
 0.49275     0.27596     0.16553     0.13157     0.13415     0.14619     0.15348     0.15747     0.15988     0.15330    
 0.13772     0.12701     0.12302     0.11793     0.11268     0.10955     0.11281     0.14292     0.23232     0.39590    
 0.58499     0.71562     0.77590     0.79996     0.72480     0.70546     0.62151     0.45275     0.27596     0.17541    
 0.14046     0.14250     0.15930     0.17245     0.17585     0.17324     0.16816     0.15778     0.14125     0.13008    
 0.12895     0.12853     0.12350     0.11709     0.11162     0.11668     0.15367     0.24702     0.39590     0.54903    
 0.65379     0.70715     0.51735     0.47045     0.36001     0.23866     0.16553     0.14046     0.14490     0.16356    
 0.18252     0.19312     0.19366     0.18584     0.17389     0.15970     0.14297     0.13178     0.13270     0.13736    
 0.13521     0.12809     0.11962     0.11266     0.11827     0.15367     0.23231     0.34190     0.44220     0.50391    
 0.29595     0.25716     0.19227     0.14492     0.13157     0.14250     0.16356     0.18386     0.19835     0.20554    
 0.20378     0.19263     0.17670     0.16022     0.14339     0.13224     0.13420     0.14280     0.14504     0.13965    
 0.13104     0.12073     0.11266     0.11668     0.14293     0.19280     0.25008     0.29034     0.16440     0.15008    
 0.12817     0.12057     0.13415     0.15930     0.18252     0.19835     0.20788     0.21138     0.20654     0.19330    
 0.17653     0.15970     0.14272     0.13178     0.13428     0.14467     0.15054     0.14857     0.14139     0.13104    
 0.11962     0.11162     0.11281     0.12516     0.14394     0.16020     0.11593     0.11733     0.11664     0.12476    
 0.14619     0.17245     0.19312     0.20554     0.21138     0.21073     0.20253     0.18873     0.17372     0.15778    
 0.14049     0.13008     0.13303     0.14316     0.15069     0.15248     0.14857     0.13965     0.12809     0.11709    
 0.10956     0.10655     0.10724     0.11096     0.10451     0.11348     0.12195     0.13401     0.15348     0.17585    
 0.19366     0.20378     0.20654     0.20253     0.19282     0.18073     0.16850     0.15329     0.13611     0.12701    
 0.13031     0.13909     0.14644     0.15069     0.15054     0.14504     0.13521     0.12350     0.11268     0.10428    
 0.98929E-01 0.98530E-01 0.10387     0.11540     0.12874     0.14228     0.15747     0.17324     0.18584     0.19263    
 0.19330     0.18873     0.18073     0.17137     0.16012     0.14492     0.12995     0.12358     0.12675     0.13334    
 0.13909     0.14316     0.14467     0.14280     0.13736     0.12853     0.11793     0.10810     0.10095     0.98706E-01
 0.11190     0.12120     0.13502     0.14882     0.15988     0.16816     0.17389     0.17670     0.17653     0.17372    
 0.16850     0.16012     0.14774     0.13382     0.12391     0.12104     0.12313     0.12675     0.13031     0.13302    
 0.13428     0.13420     0.13270     0.12895     0.12302     0.11665     0.11161     0.10927     0.12017     0.12451    
 0.13380     0.14490     0.15330     0.15778     0.15970     0.16022     0.15970     0.15778     0.15329     0.14492    
 0.13382     0.12455     0.12020     0.11974     0.12104     0.12358     0.12701     0.13008     0.13178     0.13224    
 0.13178     0.13008     0.12701     0.12358     0.12104     0.11973     0.12310     0.12398     0.12718     0.13247    
 0.13772     0.14125     0.14297     0.14339     0.14272     0.14049     0.13611     0.12995     0.12391     0.12020    
 0.11914     0.12020     0.12392     0.12994     0.13611     0.14049     0.14272     0.14339     0.14297     0.14126    
 0.13772     0.13247     0.12715     0.12395     0.12022     0.11975     0.12104     0.12358     0.12701     0.13008    
 0.13178     0.13224     0.13178     0.13008     0.12701     0.12358     0.12104     0.11974     0.12020     0.12454    
 0.13383     0.14491     0.15330     0.15778     0.15970     0.16022     0.15970     0.15778     0.15329     0.14492    
 0.13385     0.12458     0.11181     0.10922     0.11159     0.11665     0.12302     0.12895     0.13270     0.13420    
 0.13428     0.13303     0.13031     0.12675     0.12313     0.12104     0.12392     0.13383     0.14774     0.16012    
 0.16850     0.17372     0.17652     0.17670     0.17389     0.16817     0.15988     0.14881     0.13495     0.12110    
 0.10398     0.98783E-01 0.10098     0.10811     0.11793     0.12853     0.13736     0.14280     0.14467     0.14316    
 0.13909     0.13334     0.12675     0.12358     0.12994     0.14491     0.16012     0.17137     0.18073     0.18873    
 0.19330     0.19263     0.18584     0.17324     0.15747     0.14229     0.12879     0.11549     0.10440     0.98439E-01
 0.98885E-01 0.10427     0.11268     0.12350     0.13521     0.14504     0.15054     0.15069     0.14644     0.13909    
 0.13031     0.12701     0.13611     0.15330     0.16850     0.18073     0.19282     0.20253     0.20654     0.20378    
 0.19366     0.17585     0.15349     0.13400     0.12191     0.11339     0.11607     0.11108     0.10729     0.10656    
 0.10955     0.11709     0.12809     0.13965     0.14857     0.15248     0.15069     0.14316     0.13302     0.13008    
 0.14049     0.15778     0.17372     0.18873     0.20253     0.21073     0.21138     0.20554     0.19312     0.17245    
 0.14619     0.12477     0.11667     0.11743     0.16420     0.16003     0.14386     0.12515     0.11281     0.11162    
 0.11962     0.13104     0.14139     0.14857     0.15054     0.14467     0.13428     0.13178     0.14272     0.15970    
 0.17652     0.19330     0.20654     0.21138     0.20788     0.19835     0.18252     0.15930     0.13415     0.12056    
 0.12813     0.14997     0.29624     0.29060     0.25020     0.19282     0.14292     0.11668     0.11266     0.12073    
 0.13104     0.13965     0.14504     0.14280     0.13420     0.13224     0.14339     0.16022     0.17670     0.19263    
 0.20378     0.20554     0.19835     0.18386     0.16356     0.14250     0.13157     0.14492     0.19232     0.25733    
 0.51707     0.50366     0.44206     0.34187     0.23232     0.15367     0.11827     0.11266     0.11962     0.12809    
 0.13521     0.13736     0.13270     0.13178     0.14297     0.15970     0.17389     0.18584     0.19366     0.19312    
 0.18252     0.16356     0.14490     0.14046     0.16553     0.23865     0.35994     0.47026     0.72494     0.70728    
 0.65388     0.54906     0.39590     0.24702     0.15367     0.11668     0.11162     0.11709     0.12350     0.12853    
 0.12895     0.13008     0.14126     0.15778     0.16817     0.17324     0.17585     0.17245     0.15930     0.14250    
 0.14046     0.17541     0.27596     0.45276     0.62157     0.70557     0.81162     0.79991     0.77587     0.71561    
 0.58499     0.39590     0.23231     0.14293     0.11281     0.10956     0.11268     0.11793     0.12302     0.12701    
 0.13772     0.15329     0.15988     0.15747     0.15349     0.14619     0.13415     0.13157     0.16553     0.27596    
 0.49275     0.70227     0.79477     0.81568     0.79997     0.79913     0.80564     0.78977     0.71562     0.54903    
 0.34190     0.19280     0.12516     0.10655     0.10428     0.10810     0.11665     0.12358     0.13247     0.14492    
 0.14881     0.14229     0.13400     0.12477     0.12056     0.14492     0.23865     0.45276     0.70227     0.81774    
 0.83671     0.81915     0.69409     0.71814     0.77612     0.80563     0.77590     0.65379     0.44220     0.25008    
 0.14394     0.10724     0.98929E-01 0.10095     0.11161     0.12104     0.12715     0.13385     0.13495     0.12879    
 0.12191     0.11667     0.12813     0.19232     0.35994     0.62157     0.79477     0.83671     0.80776     0.74087    
 0.51340     0.58152     0.71814     0.79912     0.79996     0.70715     0.50391     0.29034     0.16020     0.11096    
 0.98530E-01 0.98706E-01 0.10927     0.11973     0.12395     0.12458     0.12110     0.11549     0.11339     0.11743    
 0.14997     0.25733     0.47026     0.70557     0.81568     0.81915     0.74087     0.59913     0.64769     0.69409    
 0.77632     0.81951     0.79606     0.66752     0.43507     0.23922     0.14341     0.11473     0.11130     0.11355    
 0.12044     0.12388     0.12377     0.12395     0.12030     0.11370     0.11116     0.11488     0.14322     0.23950    
 0.43473     0.66775     0.79598     0.81954     0.77631     0.69409     0.69409     0.74087     0.80777     0.83669    
 0.79482     0.62146     0.36006     0.19224     0.12820     0.11661     0.12199     0.12870     0.13506     0.13375    
 0.12721     0.12103     0.11158     0.10101     0.98850E-01 0.10734     0.14380     0.25030     0.44196     0.65394    
 0.77584     0.80565     0.77611     0.71814     0.77632     0.80777     0.84133     0.83844     0.74349     0.49447    
 0.25679     0.15117     0.12264     0.12583     0.13534     0.14359     0.15049     0.14770     0.13553     0.12312    
 0.10948     0.95498E-01 0.90872E-01 0.97748E-01 0.12938     0.22277     0.39524     0.59764     0.73709     0.79130    
 0.79343     0.77612     0.81951     0.83669     0.83844     0.78154     0.59187     0.33317     0.18759     0.14030    
 0.13914     0.15189     0.15963     0.16220     0.16423     0.16011     0.14468     0.12674     0.11070     0.96258E-01
 0.89663E-01 0.92657E-01 0.11265     0.17793     0.31511     0.50030     0.66362     0.75456     0.79127     0.80563    
 0.79606     0.79482     0.74349     0.59187     0.37202     0.21914     0.15599     0.14647     0.16300     0.18147    
 0.18823     0.18451     0.17727     0.16851     0.15169     0.13032     0.11309     0.10032     0.92881E-01 0.92215E-01
 0.10084     0.13553     0.22384     0.37051     0.53555     0.66363     0.73716     0.77592     0.66752     0.62146    
 0.49447     0.33317     0.21914     0.16149     0.14325     0.15277     0.17612     0.19759     0.20773     0.20345    
 0.18904     0.17372     0.15564     0.13302     0.11582     0.10603     0.99074E-01 0.95502E-01 0.96608E-01 0.10900    
 0.15102     0.24118     0.37052     0.50027     0.59750     0.65372     0.43507     0.36006     0.25679     0.18759    
 0.15599     0.14325     0.14409     0.15791     0.17938     0.20112     0.21559     0.21436     0.19708     0.17652    
 0.15700     0.13428     0.11777     0.11170     0.10733     0.10216     0.99264E-01 0.99975E-01 0.11233     0.15102    
 0.22383     0.31514     0.39542     0.44230     0.23922     0.19224     0.15117     0.14030     0.14647     0.15277    
 0.15791     0.16720     0.18271     0.20231     0.21813     0.21828     0.19985     0.17670     0.15649     0.13420    
 0.11841     0.11540     0.11491     0.11033     0.10525     0.10122     0.99972E-01 0.10900     0.13554     0.17791    
 0.22260     0.24999     0.14341     0.12820     0.12264     0.13914     0.16300     0.17612     0.17938     0.18271    
 0.19257     0.20811     0.22042     0.21732     0.19708     0.17389     0.15424     0.13270     0.11777     0.11624    
 0.11874     0.11682     0.11153     0.10525     0.99265E-01 0.96608E-01 0.10083     0.11267     0.12948     0.14401    
 0.11473     0.11661     0.12583     0.15189     0.18147     0.19759     0.20112     0.20231     0.20811     0.21729    
 0.22123     0.21093     0.18904     0.16817     0.14951     0.12895     0.11582     0.11482     0.11833     0.11953    
 0.11681     0.11033     0.10216     0.95503E-01 0.92219E-01 0.92648E-01 0.97680E-01 0.10719     0.11130     0.12199    
 0.13534     0.15963     0.18823     0.20773     0.21559     0.21813     0.22042     0.22123     0.21467     0.19782    
 0.17728     0.15987     0.14165     0.12302     0.11309     0.11272     0.11568     0.11833     0.11874     0.11491    
 0.10733     0.99073E-01 0.92878E-01 0.89670E-01 0.90919E-01 0.98964E-01 0.11355     0.12870     0.14359     0.16220    
 0.18451     0.20345     0.21436     0.21828     0.21732     0.21093     0.19782     0.18050     0.16423     0.14882    
 0.13127     0.11665     0.11069     0.11090     0.11272     0.11482     0.11624     0.11540     0.11171     0.10603    
 0.10032     0.96255E-01 0.95468E-01 0.10092     0.12044     0.13506     0.15049     0.16423     0.17727     0.18904    
 0.19708     0.19985     0.19708     0.18904     0.17728     0.16423     0.15044     0.13498     0.12037     0.11160    
 0.10948     0.11069     0.11309     0.11582     0.11777     0.11840     0.11777     0.11582     0.11309     0.11069    
 0.10948     0.11163     0.12388     0.13375     0.14770     0.16011     0.16851     0.17372     0.17652     0.17670    
 0.17389     0.16817     0.15987     0.14882     0.13498     0.12115     0.11186     0.10924     0.11160     0.11665    
 0.12302     0.12895     0.13270     0.13421     0.13428     0.13303     0.13031     0.12676     0.12315     0.12104    
 0.12377     0.12721     0.13553     0.14468     0.15169     0.15564     0.15700     0.15649     0.15424     0.14951    
 0.14165     0.13127     0.12037     0.11186     0.10861     0.11186     0.12037     0.13126     0.14165     0.14950    
 0.15424     0.15649     0.15699     0.15564     0.15169     0.14467     0.13545     0.12713     0.12395     0.12103    
 0.12312     0.12674     0.13032     0.13302     0.13428     0.13420     0.13270     0.12895     0.12302     0.11665    
 0.11160     0.10924     0.11186     0.12114     0.13499     0.14881     0.15988     0.16817     0.17390     0.17670    
 0.17653     0.17372     0.16849     0.16013     0.14779     0.13390     0.12030     0.11158     0.10948     0.11070    
 0.11309     0.11582     0.11777     0.11841     0.11777     0.11582     0.11309     0.11069     0.10948     0.11160    
 0.12037     0.13499     0.15045     0.16422     0.17728     0.18904     0.19707     0.19985     0.19707     0.18904    
 0.17728     0.16422     0.15040     0.13491     0.11370     0.10101     0.95498E-01 0.96258E-01 0.10032     0.10603    
 0.11170     0.11540     0.11624     0.11482     0.11272     0.11090     0.11069     0.11665     0.13126     0.14881    
 0.16422     0.18050     0.19782     0.21094     0.21732     0.21829     0.21436     0.20345     0.18450     0.16221    
 0.14366     0.12883     0.11116     0.98850E-01 0.90872E-01 0.89663E-01 0.92881E-01 0.99074E-01 0.10733     0.11491    
 0.11874     0.11833     0.11568     0.11272     0.11309     0.12302     0.14165     0.15988     0.17728     0.19782    
 0.21467     0.22122     0.22042     0.21813     0.21559     0.20773     0.18824     0.15962     0.13529     0.12188    
 0.11488     0.10734     0.97748E-01 0.92657E-01 0.92215E-01 0.95502E-01 0.10216     0.11033     0.11682     0.11953    
 0.11833     0.11482     0.11582     0.12895     0.14950     0.16817     0.18904     0.21094     0.22122     0.21729    
 0.20811     0.20232     0.20112     0.19759     0.18147     0.15189     0.12587     0.11670     0.14322     0.14380    
 0.12938     0.11265     0.10084     0.96608E-01 0.99264E-01 0.10525     0.11153     0.11681     0.11874     0.11624    
 0.11777     0.13270     0.15424     0.17390     0.19707     0.21732     0.22042     0.20811     0.19257     0.18271    
 0.17938     0.17612     0.16300     0.13914     0.12262     0.12811     0.23950     0.25030     0.22277     0.17793    
 0.13553     0.10900     0.99975E-01 0.10122     0.10525     0.11033     0.11491     0.11540     0.11840     0.13421    
 0.15649     0.17670     0.19985     0.21829     0.21813     0.20232     0.18271     0.16720     0.15791     0.15277    
 0.14647     0.14030     0.15120     0.19236     0.43473     0.44196     0.39524     0.31511     0.22384     0.15102    
 0.11233     0.99972E-01 0.99265E-01 0.10216     0.10733     0.11171     0.11777     0.13428     0.15699     0.17653    
 0.19707     0.21436     0.21559     0.20112     0.17938     0.15791     0.14409     0.14325     0.15599     0.18759    
 0.25675     0.35988     0.66775     0.65394     0.59764     0.50030     0.37051     0.24118     0.15102     0.10900    
 0.96608E-01 0.95503E-01 0.99073E-01 0.10603     0.11582     0.13303     0.15564     0.17372     0.18904     0.20345    
 0.20773     0.19759     0.17612     0.15277     0.14325     0.16149     0.21914     0.33318     0.49454     0.62162    
 0.79598     0.77584     0.73709     0.66362     0.53555     0.37052     0.22383     0.13554     0.10083     0.92219E-01
 0.92878E-01 0.10032     0.11309     0.13031     0.15169     0.16849     0.17728     0.18450     0.18824     0.18147    
 0.16300     0.14647     0.15599     0.21914     0.37203     0.59186     0.74346     0.79475     0.81954     0.80565    
 0.79130     0.75456     0.66363     0.50027     0.31514     0.17791     0.11267     0.92648E-01 0.89670E-01 0.96255E-01
 0.11069     0.12676     0.14467     0.16013     0.16422     0.16221     0.15962     0.15189     0.13914     0.14030    
 0.18759     0.33318     0.59186     0.78155     0.83846     0.83671     0.77631     0.77611     0.79343     0.79127    
 0.73716     0.59750     0.39542     0.22260     0.12948     0.97680E-01 0.90919E-01 0.95468E-01 0.10948     0.12315    
 0.13545     0.14779     0.15040     0.14366     0.13529     0.12587     0.12262     0.15120     0.25675     0.49454    
 0.74346     0.83846     0.84132     0.80776     0.69409     0.71814     0.77612     0.80563     0.77592     0.65372    
 0.44230     0.24999     0.14401     0.10719     0.98964E-01 0.10092     0.11163     0.12104     0.12713     0.13390    
 0.13491     0.12883     0.12188     0.11670     0.12811     0.19236     0.35988     0.62162     0.79475     0.83671    
 0.80776     0.74087     0.78729     0.79996     0.81953     0.81167     0.73395     0.53850     0.30991     0.17329    
 0.12279     0.11500     0.11951     0.12540     0.13132     0.12992     0.12681     0.12998     0.13121     0.12552    
 0.11941     0.11510     0.12270     0.17342     0.30973     0.53870     0.73384     0.81171     0.81952     0.79997    
 0.79996     0.81914     0.83671     0.81772     0.70231     0.45270     0.23869     0.14490     0.12058     0.12474    
 0.13404     0.14223     0.14888     0.14485     0.13251     0.12357     0.11664     0.10813     0.10423     0.10660    
 0.12509     0.19289     0.34176     0.54914     0.71557     0.78979     0.80563     0.79912     0.81953     0.83671    
 0.83846     0.78154     0.59188     0.33317     0.18759     0.14029     0.13914     0.15188     0.15964     0.16218    
 0.16426     0.16009     0.14471     0.12673     0.11070     0.96262E-01 0.89655E-01 0.92674E-01 0.11263     0.17797    
 0.31507     0.50034     0.66359     0.75457     0.79129     0.80565     0.81167     0.81772     0.78154     0.64902    