       N       E                     dE             d eps       ncg     rms          rms(c)
DAV:   1     0.462207424704E+03    0.46221E+03   -0.29328E+04   288   0.237E+03
DAV:   2     0.316111055454E+02   -0.43060E+03   -0.40955E+03   288   0.458E+02
DAV:   3    -0.243969822797E+02   -0.56008E+02   -0.54218E+02   312   0.166E+02
DAV:   4    -0.271843646188E+02   -0.27874E+01   -0.27623E+01   316   0.347E+01
DAV:   5    -0.272198160740E+02   -0.35451E-01   -0.35427E-01   316   0.389E+00
RMM:   6    -0.272203180315E+02   -0.50196E-03   -0.50196E-03   296   0.401E-01
RMM:   7    -0.272203417574E+02   -0.23726E-04   -0.25905E-04   325   0.101E-01
RMM:   8    -0.272203443918E+02   -0.26344E-05   -0.24416E-05   248   0.189E-02
RMM:   9    -0.272203444026E+02   -0.10787E-07   -0.32478E-07   189   0.499E-03
   1 F= -.27220344E+02 E0= -.27220330E+02  d E =-.280309E-04
