PROCAR lm decomposed
# of k-points:    4         # of bands:  36         # of ions:   6

 k-point    1 :    0.00000000 0.00000000 0.00000000     weight = 0.03703704

band   1 # energy  -17.72954096 # occ.  2.00000000
 
ion      s     py     pz     px    dxy    dyz    dz2    dxz    dx2    tot
  1  0.018  0.000  0.000  0.000  0.005  0.005  0.000  0.005  0.000  0.034
  2  0.018  0.000  0.000  0.000  0.005  0.005  0.000  0.005  0.000  0.034
  3  0.018  0.000  0.000  0.000  0.005  0.005  0.000  0.005  0.000  0.034
  4  0.018  0.000  0.000  0.000  0.005  0.005  0.000  0.005  0.000  0.034
  5  0.365  0.000  0.000  0.000  0.000  0.000  0.000  0.000  0.000  0.365
  6  0.365  0.000  0.000  0.000  0.000  0.000  0.000  0.000  0.000  0.365
tot  0.801  0.000  0.000  0.000  0.021  0.021  0.000  0.021  0.000  0.864
 
band   2 # energy  -17.05238503 # occ.  2.00000000
 
ion      s     py     pz     px    dxy    dyz    dz2    dxz    dx2    tot
  1  0.000  0.007  0.007  0.007  0.000  0.000  0.000  0.000  0.000  0.022
  2  0.000  0.007  0.007  0.007  0.000  0.000  0.000  0.000  0.000  0.022
  3  0.000  0.007  0.007  0.007  0.000  0.000  0.000  0.000  0.000  0.022
  4  0.000  0.007  0.007  0.007  0.000  0.000  0.000  0.000  0.000  0.022
  5  0.391  0.000  0.000  0.000  0.000  0.000  0.000  0.000  0.000  0.391
  6  0.391  0.000  0.000  0.000  0.000  0.000  0.000  0.000  0.000  0.391
tot  0.782  0.030  0.030  0.030  0.000  0.000  0.000  0.000  0.000  0.871
 
band   3 # energy   -4.80503319 # occ.  2.00000000
 
ion      s     py     pz     px    dxy    dyz    dz2    dxz    dx2    tot
  1  0.002  0.000  0.000  0.000  0.009  0.001  0.035  0.003  0.002  0.051
  2  0.052  0.000  0.000  0.000  0.045  0.028  0.006  0.029  0.002  0.162
  3  0.015  0.000  0.000  0.000  0.022  0.002  0.019  0.013  0.011  0.081
  4  0.018  0.000  0.000  0.000  0.024  0.013  0.017  0.005  0.011  0.088
  5  0.000  0.042  0.145  0.029  0.000  0.000  0.000  0.000  0.000  0.216
  6  0.000  0.042  0.145  0.029  0.000  0.000  0.000  0.000  0.000  0.216
tot  0.088  0.083  0.290  0.058  0.100  0.044  0.076  0.050  0.025  0.815
 
band   4 # energy   -4.80503319 # occ.  2.00000000
 
ion      s     py     pz     px    dxy    dyz    dz2    dxz    dx2    tot
  1  0.036  0.000  0.000  0.000  0.019  0.031  0.002  0.024  0.015  0.128
  2  0.012  0.000  0.000  0.000  0.002  0.018  0.016  0.011  0.015  0.074
  3  0.019  0.000  0.000  0.000  0.009  0.023  0.007  0.012  0.020  0.090
  4  0.020  0.000  0.000  0.000  0.009  0.019  0.007  0.017  0.020  0.091
  5  0.000  0.069  0.018  0.129  0.000  0.000  0.000  0.000  0.000  0.216
  6  0.000  0.069  0.018  0.129  0.000  0.000  0.000  0.000  0.000  0.216
tot  0.088  0.138  0.036  0.258  0.039  0.092  0.032  0.063  0.070  0.815
 
band   5 # energy   -4.80503319 # occ.  2.00000000
 
ion      s     py     pz     px    dxy    dyz    dz2    dxz    dx2    tot
  1  0.027  0.000  0.000  0.000  0.021  0.016  0.001  0.021  0.021  0.108
  2  0.002  0.000  0.000  0.000  0.002  0.002  0.016  0.008  0.021  0.051
  3  0.031  0.000  0.000  0.000  0.018  0.023  0.012  0.024  0.008  0.116
  4  0.027  0.000  0.000  0.000  0.015  0.016  0.014  0.027  0.008  0.108
  5  0.000  0.105  0.053  0.058  0.000  0.000  0.000  0.000  0.000  0.216
  6  0.000  0.105  0.053  0.058  0.000  0.000  0.000  0.000  0.000  0.216
tot  0.088  0.211  0.106  0.115  0.056  0.058  0.044  0.081  0.057  0.815
 
band   6 # energy   -2.49056046 # occ.  2.00000000
 
ion      s     py     pz     px    dxy    dyz    dz2    dxz    dx2    tot
  1  0.056  0.000  0.000  0.000  0.025  0.025  0.000  0.025  0.000  0.132
  2  0.056  0.000  0.000  0.000  0.025  0.025  0.000  0.025  0.000  0.132
  3  0.056  0.000  0.000  0.000  0.025  0.025  0.000  0.025  0.000  0.132
  4  0.056  0.000  0.000  0.000  0.025  0.025  0.000  0.025  0.000  0.132
  5  0.012  0.000  0.000  0.000  0.000  0.000  0.000  0.000  0.000  0.012
  6  0.012  0.000  0.000  0.000  0.000  0.000  0.000  0.000  0.000  0.012
tot  0.250  0.000  0.000  0.000  0.101  0.101  0.000  0.101  0.000  0.553
 
band   7 # energy   -2.46235798 # occ.  2.00000000
 
ion      s     py     pz     px    dxy    dyz    dz2    dxz    dx2    tot
  1  0.000  0.004  0.015  0.001  0.000  0.000  0.000  0.000  0.000  0.020
  2  0.000  0.030  0.026  0.018  0.000  0.000  0.000  0.000  0.000  0.074
  3  0.000  0.002  0.002  0.004  0.000  0.000  0.000  0.000  0.000  0.007
  4  0.000  0.021  0.007  0.003  0.000  0.000  0.000  0.000  0.000  0.031
  5  0.000  0.033  0.076  0.226  0.000  0.000  0.000  0.000  0.000  0.334
  6  0.000  0.033  0.076  0.226  0.000  0.000  0.000  0.000  0.000  0.334
tot  0.000  0.123  0.201  0.477  0.000  0.000  0.000  0.000  0.000  0.802
 
band   8 # energy   -2.46235798 # occ.  2.00000000
 
ion      s     py     pz     px    dxy    dyz    dz2    dxz    dx2    tot
  1  0.000  0.007  0.005  0.007  0.000  0.000  0.000  0.000  0.000  0.018
  2  0.000  0.001  0.005  0.013  0.000  0.000  0.000  0.000  0.000  0.019
  3  0.000  0.017  0.026  0.023  0.000  0.000  0.000  0.000  0.000  0.066
  4  0.000  0.003  0.018  0.009  0.000  0.000  0.000  0.000  0.000  0.030
  5  0.000  0.217  0.057  0.060  0.000  0.000  0.000  0.000  0.000  0.334
  6  0.000  0.217  0.057  0.060  0.000  0.000  0.000  0.000  0.000  0.334
tot  0.000  0.462  0.167  0.173  0.000  0.000  0.000  0.000  0.000  0.802
 
band   9 # energy   -2.46235798 # occ.  2.00000000
 
ion      s     py     pz     px    dxy    dyz    dz2    dxz    dx2    tot
  1  0.000  0.022  0.014  0.026  0.000  0.000  0.000  0.000  0.000  0.062
  2  0.000  0.003  0.002  0.002  0.000  0.000  0.000  0.000  0.000  0.007
  3  0.000  0.015  0.006  0.006  0.000  0.000  0.000  0.000  0.000  0.026
  4  0.000  0.009  0.008  0.021  0.000  0.000  0.000  0.000  0.000  0.038
  5  0.000  0.084  0.202  0.049  0.000  0.000  0.000  0.000  0.000  0.334
  6  0.000  0.084  0.202  0.049  0.000  0.000  0.000  0.000  0.000  0.334
tot  0.000  0.217  0.433  0.152  0.000  0.000  0.000  0.000  0.000  0.802
 
band  10 # energy   -0.73662031 # occ.  2.00000000
 
ion      s     py     pz     px    dxy    dyz    dz2    dxz    dx2    tot
  1  0.000  0.000  0.000  0.000  0.033  0.129  0.001  0.057  0.003  0.223
  2  0.000  0.000  0.000  0.000  0.033  0.129  0.001  0.057  0.003  0.223
  3  0.000  0.000  0.000  0.000  0.033  0.129  0.001  0.057  0.003  0.223
  4  0.000  0.000  0.000  0.000  0.033  0.129  0.001  0.057  0.003  0.223
  5  0.000  0.000  0.000  0.000  0.000  0.000  0.000  0.000  0.000  0.000
  6  0.000  0.000  0.000  0.000  0.000  0.000  0.000  0.000  0.000  0.000
tot  0.000  0.000  0.000  0.000  0.132  0.517  0.004  0.227  0.013  0.893
 
band  11 # energy   -0.73662031 # occ.  2.00000000
 
ion      s     py     pz     px    dxy    dyz    dz2    dxz    dx2    tot
  1  0.000  0.000  0.000  0.000  0.113  0.017  0.003  0.089  0.001  0.223
  2  0.000  0.000  0.000  0.000  0.113  0.017  0.003  0.089  0.001  0.223
  3  0.000  0.000  0.000  0.000  0.113  0.017  0.003  0.089  0.001  0.223
  4  0.000  0.000  0.000  0.000  0.113  0.017  0.003  0.089  0.001  0.223
  5  0.000  0.000  0.000  0.000  0.000  0.000  0.000  0.000  0.000  0.000
  6  0.000  0.000  0.000  0.000  0.000  0.000  0.000  0.000  0.000  0.000
tot  0.000  0.000  0.000  0.000  0.452  0.067  0.013  0.357  0.004  0.893
 
band  12 # energy   -0.59607237 # occ.  2.00000000
 
ion      s     py     pz     px    dxy    dyz    dz2    dxz    dx2    tot
  1  0.002  0.000  0.000  0.000  0.044  0.062  0.001  0.038  0.074  0.221
  2  0.000  0.000  0.000  0.000  0.001  0.028  0.110  0.011  0.074  0.225
  3  0.001  0.000  0.000  0.000  0.027  0.052  0.037  0.019  0.086  0.222
  4  0.001  0.000  0.000  0.000  0.015  0.031  0.066  0.024  0.086  0.223
  5  0.000  0.001  0.001  0.003  0.000  0.000  0.000  0.000  0.000  0.004
  6  0.000  0.001  0.001  0.003  0.000  0.000  0.000  0.000  0.000  0.004
tot  0.003  0.002  0.002  0.005  0.088  0.173  0.214  0.093  0.320  0.900
 
band  13 # energy   -0.59607237 # occ.  2.00000000
 
ion      s     py     pz     px    dxy    dyz    dz2    dxz    dx2    tot
  1  0.001  0.000  0.000  0.000  0.018  0.011  0.071  0.036  0.087  0.224
  2  0.001  0.000  0.000  0.000  0.030  0.009  0.039  0.056  0.087  0.223
  3  0.002  0.000  0.000  0.000  0.045  0.028  0.018  0.068  0.061  0.221
  4  0.000  0.000  0.000  0.000  0.008  0.006  0.110  0.039  0.061  0.224
  5  0.000  0.003  0.001  0.000  0.000  0.000  0.000  0.000  0.000  0.004
  6  0.000  0.003  0.001  0.000  0.000  0.000  0.000  0.000  0.000  0.004
tot  0.003  0.006  0.002  0.000  0.101  0.054  0.238  0.199  0.296  0.900
 
band  14 # energy   -0.59607237 # occ.  2.00000000
 
ion      s     py     pz     px    dxy    dyz    dz2    dxz    dx2    tot
  1  0.000  0.000  0.000  0.000  0.026  0.015  0.129  0.014  0.039  0.224
  2  0.001  0.000  0.000  0.000  0.058  0.052  0.051  0.021  0.039  0.221
  3  0.000  0.000  0.000  0.000  0.016  0.008  0.146  0.001  0.053  0.225
  4  0.002  0.000  0.000  0.000  0.065  0.051  0.024  0.026  0.053  0.221
  5  0.000  0.000  0.002  0.002  0.000  0.000  0.000  0.000  0.000  0.004
  6  0.000  0.000  0.002  0.002  0.000  0.000  0.000  0.000  0.000  0.004
tot  0.003  0.001  0.005  0.003  0.165  0.127  0.349  0.062  0.185  0.900
 
band  15 # energy    0.19702186 # occ.  2.00000000
 
ion      s     py     pz     px    dxy    dyz    dz2    dxz    dx2    tot
  1  0.000  0.000  0.000  0.000  0.002  0.000  0.202  0.002  0.036  0.242
  2  0.000  0.000  0.000  0.000  0.002  0.000  0.202  0.002  0.036  0.242
  3  0.000  0.000  0.000  0.000  0.002  0.000  0.202  0.002  0.036  0.242
  4  0.000  0.000  0.000  0.000  0.002  0.000  0.202  0.002  0.036  0.242
  5  0.000  0.000  0.000  0.000  0.000  0.000  0.000  0.000  0.000  0.000
  6  0.000  0.000  0.000  0.000  0.000  0.000  0.000  0.000  0.000  0.000
tot  0.000  0.000  0.000  0.000  0.009  0.000  0.807  0.007  0.144  0.968
 
band  16 # energy    0.19702186 # occ.  2.00000000
 
ion      s     py     pz     px    dxy    dyz    dz2    dxz    dx2    tot
  1  0.000  0.000  0.000  0.000  0.000  0.003  0.036  0.001  0.202  0.242
  2  0.000  0.000  0.000  0.000  0.000  0.003  0.036  0.001  0.202  0.242
  3  0.000  0.000  0.000  0.000  0.000  0.003  0.036  0.001  0.202  0.242
  4  0.000  0.000  0.000  0.000  0.000  0.003  0.036  0.001  0.202  0.242
  5  0.000  0.000  0.000  0.000  0.000  0.000  0.000  0.000  0.000  0.000
  6  0.000  0.000  0.000  0.000  0.000  0.000  0.000  0.000  0.000  0.000
tot  0.000  0.000  0.000  0.000  0.002  0.011  0.144  0.004  0.807  0.968
 
band  17 # energy    0.31265766 # occ.  2.00000000
 
ion      s     py     pz     px    dxy    dyz    dz2    dxz    dx2    tot
  1  0.001  0.000  0.000  0.000  0.062  0.023  0.001  0.070  0.000  0.157
  2  0.000  0.000  0.000  0.000  0.163  0.071  0.003  0.023  0.000  0.261
  3  0.000  0.000  0.000  0.000  0.024  0.062  0.001  0.162  0.002  0.252
  4  0.000  0.000  0.000  0.000  0.072  0.163  0.002  0.062  0.002  0.300
  5  0.000  0.000  0.001  0.001  0.000  0.000  0.000  0.000  0.000  0.002
  6  0.000  0.000  0.001  0.001  0.000  0.000  0.000  0.000  0.000  0.002
tot  0.002  0.001  0.002  0.002  0.321  0.319  0.007  0.317  0.004  0.974
 
band  18 # energy    0.31265766 # occ.  2.00000000
 
ion      s     py     pz     px    dxy    dyz    dz2    dxz    dx2    tot
  1  0.000  0.000  0.000  0.000  0.018  0.198  0.000  0.098  0.003  0.318
  2  0.000  0.000  0.000  0.000  0.007  0.099  0.000  0.197  0.003  0.307
  3  0.001  0.000  0.000  0.000  0.196  0.018  0.002  0.007  0.000  0.224
  4  0.001  0.000  0.000  0.000  0.096  0.006  0.001  0.017  0.000  0.121
  5  0.000  0.001  0.000  0.001  0.000  0.000  0.000  0.000  0.000  0.002
  6  0.000  0.001  0.000  0.001  0.000  0.000  0.000  0.000  0.000  0.002
tot  0.002  0.001  0.001  0.002  0.317  0.321  0.004  0.319  0.007  0.974
 
band  19 # energy    0.31265766 # occ.  2.00000000
 
ion      s     py     pz     px    dxy    dyz    dz2    dxz    dx2    tot
  1  0.000  0.000  0.000  0.000  0.160  0.018  0.002  0.071  0.000  0.253
  2  0.001  0.000  0.000  0.000  0.069  0.069  0.001  0.019  0.000  0.159
  3  0.000  0.000  0.000  0.000  0.019  0.159  0.001  0.070  0.002  0.252
  4  0.000  0.000  0.000  0.000  0.071  0.070  0.002  0.161  0.002  0.305
  5  0.000  0.001  0.001  0.000  0.000  0.000  0.000  0.000  0.000  0.002
  6  0.000  0.001  0.001  0.000  0.000  0.000  0.000  0.000  0.000  0.002
tot  0.002  0.002  0.002  0.000  0.319  0.317  0.006  0.321  0.005  0.974
 
band  20 # energy    0.42468921 # occ.  2.00000000
 
ion      s     py     pz     px    dxy    dyz    dz2    dxz    dx2    tot
  1  0.000  0.000  0.000  0.000  0.009  0.008  0.071  0.004  0.039  0.130
  2  0.000  0.000  0.000  0.000  0.009  0.030  0.071  0.007  0.165  0.281
  3  0.000  0.000  0.000  0.000  0.022  0.030  0.170  0.004  0.116  0.342
  4  0.000  0.000  0.000  0.000  0.022  0.008  0.170  0.007  0.021  0.228
  5  0.000  0.000  0.000  0.000  0.000  0.000  0.000  0.000  0.000  0.000
  6  0.000  0.000  0.000  0.000  0.000  0.000  0.000  0.000  0.000  0.000
tot  0.000  0.000  0.000  0.000  0.062  0.077  0.482  0.020  0.340  0.982
 
band  21 # energy    0.42468921 # occ.  2.00000000
 
ion      s     py     pz     px    dxy    dyz    dz2    dxz    dx2    tot
  1  0.000  0.000  0.000  0.000  0.017  0.004  0.135  0.034  0.149  0.338
  2  0.000  0.000  0.000  0.000  0.017  0.005  0.135  0.004  0.004  0.165
  3  0.000  0.000  0.000  0.000  0.015  0.005  0.119  0.034  0.161  0.334
  4  0.000  0.000  0.000  0.000  0.015  0.004  0.119  0.004  0.002  0.144
  5  0.000  0.000  0.000  0.000  0.000  0.000  0.000  0.000  0.000  0.000
  6  0.000  0.000  0.000  0.000  0.000  0.000  0.000  0.000  0.000  0.000
tot  0.000  0.000  0.000  0.000  0.066  0.018  0.507  0.076  0.315  0.982
 
band  22 # energy    0.42468921 # occ.  2.00000000
 
ion      s     py     pz     px    dxy    dyz    dz2    dxz    dx2    tot
  1  0.000  0.000  0.000  0.000  0.013  0.028  0.103  0.003  0.121  0.267
  2  0.000  0.000  0.000  0.000  0.013  0.005  0.103  0.029  0.140  0.290
  3  0.000  0.000  0.000  0.000  0.002  0.005  0.019  0.003  0.031  0.060
  4  0.000  0.000  0.000  0.000  0.002  0.028  0.019  0.029  0.286  0.364
  5  0.000  0.000  0.000  0.000  0.000  0.000  0.000  0.000  0.000  0.000
  6  0.000  0.000  0.000  0.000  0.000  0.000  0.000  0.000  0.000  0.000
tot  0.000  0.000  0.000  0.000  0.032  0.065  0.245  0.063  0.578  0.982
 
band  23 # energy    0.63242852 # occ.  2.00000000
 
ion      s     py     pz     px    dxy    dyz    dz2    dxz    dx2    tot
  1  0.000  0.000  0.000  0.000  0.094  0.063  0.027  0.004  0.004  0.192
  2  0.000  0.000  0.000  0.000  0.094  0.143  0.027  0.006  0.020  0.290
  3  0.000  0.000  0.000  0.000  0.102  0.143  0.030  0.004  0.018  0.297
  4  0.000  0.000  0.000  0.000  0.102  0.063  0.030  0.006  0.004  0.205
  5  0.000  0.000  0.000  0.000  0.000  0.000  0.000  0.000  0.000  0.000
  6  0.000  0.000  0.000  0.000  0.000  0.000  0.000  0.000  0.000  0.000
tot  0.000  0.000  0.000  0.000  0.392  0.412  0.113  0.021  0.046  0.984
 
band  24 # energy    0.63242852 # occ.  2.00000000
 
ion      s     py     pz     px    dxy    dyz    dz2    dxz    dx2    tot
  1  0.000  0.000  0.000  0.000  0.017  0.097  0.005  0.193  0.054  0.366
  2  0.000  0.000  0.000  0.000  0.017  0.046  0.005  0.007  0.009  0.083
  3  0.000  0.000  0.000  0.000  0.053  0.046  0.015  0.193  0.041  0.347
  4  0.000  0.000  0.000  0.000  0.053  0.097  0.015  0.007  0.015  0.187
  5  0.000  0.000  0.000  0.000  0.000  0.000  0.000  0.000  0.000  0.000
  6  0.000  0.000  0.000  0.000  0.000  0.000  0.000  0.000  0.000  0.000
tot  0.000  0.000  0.000  0.000  0.139  0.286  0.040  0.400  0.119  0.984
 
band  25 # energy    0.63242852 # occ.  2.00000000
 
ion      s     py     pz     px    dxy    dyz    dz2    dxz    dx2    tot
  1  0.000  0.000  0.000  0.000  0.096  0.046  0.028  0.009  0.001  0.180
  2  0.000  0.000  0.000  0.000  0.096  0.018  0.028  0.193  0.031  0.365
  3  0.000  0.000  0.000  0.000  0.052  0.018  0.015  0.009  0.000  0.094
  4  0.000  0.000  0.000  0.000  0.052  0.046  0.015  0.193  0.041  0.346
  5  0.000  0.000  0.000  0.000  0.000  0.000  0.000  0.000  0.000  0.000
  6  0.000  0.000  0.000  0.000  0.000  0.000  0.000  0.000  0.000  0.000
tot  0.000  0.000  0.000  0.000  0.295  0.126  0.085  0.404  0.074  0.984
 
band  26 # energy    2.13571319 # occ.  1.99950328
 
ion      s     py     pz     px    dxy    dyz    dz2    dxz    dx2    tot
  1  0.047  0.000  0.000  0.000  0.060  0.087  0.013  0.064  0.022  0.293
  2  0.024  0.000  0.000  0.000  0.023  0.052  0.049  0.036  0.022  0.207
  3  0.017  0.000  0.000  0.000  0.024  0.040  0.001  0.015  0.083  0.179
  4  0.004  0.000  0.000  0.000  0.003  0.017  0.021  0.003  0.083  0.130
  5  0.000  0.008  0.003  0.054  0.000  0.000  0.000  0.000  0.000  0.065
  6  0.000  0.008  0.003  0.054  0.000  0.000  0.000  0.000  0.000  0.065
tot  0.092  0.016  0.006  0.109  0.109  0.196  0.085  0.117  0.210  0.941
 
band  27 # energy    2.13571319 # occ.  1.99950328
 
ion      s     py     pz     px    dxy    dyz    dz2    dxz    dx2    tot
  1  0.019  0.000  0.000  0.000  0.037  0.018  0.040  0.033  0.040  0.187
  2  0.015  0.000  0.000  0.000  0.031  0.017  0.046  0.023  0.040  0.172
  3  0.020  0.000  0.000  0.000  0.033  0.025  0.068  0.034  0.011  0.191
  4  0.039  0.000  0.000  0.000  0.063  0.049  0.038  0.061  0.011  0.261
  5  0.000  0.027  0.035  0.003  0.000  0.000  0.000  0.000  0.000  0.065
  6  0.000  0.027  0.035  0.003  0.000  0.000  0.000  0.000  0.000  0.065
tot  0.092  0.055  0.070  0.006  0.164  0.109  0.192  0.150  0.102  0.941
 
band  28 # energy    2.13571319 # occ.  1.99950328
 
ion      s     py     pz     px    dxy    dyz    dz2    dxz    dx2    tot
  1  0.003  0.000  0.000  0.000  0.009  0.001  0.057  0.009  0.048  0.128
  2  0.030  0.000  0.000  0.000  0.052  0.037  0.015  0.047  0.048  0.229
  3  0.032  0.000  0.000  0.000  0.049  0.040  0.042  0.056  0.017  0.237
  4  0.027  0.000  0.000  0.000  0.040  0.039  0.051  0.042  0.017  0.216
  5  0.000  0.030  0.027  0.008  0.000  0.000  0.000  0.000  0.000  0.065
  6  0.000  0.030  0.027  0.008  0.000  0.000  0.000  0.000  0.000  0.065
tot  0.092  0.061  0.054  0.016  0.150  0.117  0.165  0.155  0.130  0.941
 
band  29 # energy    2.60658346 # occ.  0.00149016
 
ion      s     py     pz     px    dxy    dyz    dz2    dxz    dx2    tot
  1  0.020  0.000  0.000  0.000  0.056  0.056  0.000  0.056  0.000  0.189
  2  0.020  0.000  0.000  0.000  0.056  0.056  0.000  0.056  0.000  0.189
  3  0.020  0.000  0.000  0.000  0.056  0.056  0.000  0.056  0.000  0.189
  4  0.020  0.000  0.000  0.000  0.056  0.056  0.000  0.056  0.000  0.189
  5  0.053  0.000  0.000  0.000  0.000  0.000  0.000  0.000  0.000  0.053
  6  0.053  0.000  0.000  0.000  0.000  0.000  0.000  0.000  0.000  0.053
tot  0.186  0.000  0.000  0.000  0.226  0.226  0.000  0.226  0.000  0.864
 
band  30 # energy    3.50871679 # occ.  0.00000000
 
ion      s     py     pz     px    dxy    dyz    dz2    dxz    dx2    tot
  1  0.000  0.021  0.009  0.054  0.000  0.000  0.000  0.000  0.000  0.084
  2  0.000  0.021  0.009  0.054  0.000  0.000  0.000  0.000  0.000  0.084
  3  0.000  0.021  0.009  0.054  0.000  0.000  0.000  0.000  0.000  0.084
  4  0.000  0.021  0.009  0.054  0.000  0.000  0.000  0.000  0.000  0.084
  5  0.000  0.000  0.000  0.000  0.000  0.000  0.000  0.000  0.000  0.000
  6  0.000  0.000  0.000  0.000  0.000  0.000  0.000  0.000  0.000  0.000
tot  0.000  0.082  0.035  0.217  0.000  0.000  0.000  0.000  0.000  0.335
 
band  31 # energy    3.50871679 # occ.  0.00000000
 
ion      s     py     pz     px    dxy    dyz    dz2    dxz    dx2    tot
  1  0.000  0.035  0.047  0.001  0.000  0.000  0.000  0.000  0.000  0.084
  2  0.000  0.035  0.047  0.001  0.000  0.000  0.000  0.000  0.000  0.084
  3  0.000  0.035  0.047  0.001  0.000  0.000  0.000  0.000  0.000  0.084
  4  0.000  0.035  0.047  0.001  0.000  0.000  0.000  0.000  0.000  0.084
  5  0.000  0.000  0.000  0.000  0.000  0.000  0.000  0.000  0.000  0.000
  6  0.000  0.000  0.000  0.000  0.000  0.000  0.000  0.000  0.000  0.000
tot  0.000  0.141  0.188  0.006  0.000  0.000  0.000  0.000  0.000  0.335
 
band  32 # energy    9.85257224 # occ.  0.00000000
 
ion      s     py     pz     px    dxy    dyz    dz2    dxz    dx2    tot
  1  0.155  0.000  0.000  0.000  0.014  0.018  0.000  0.013  0.004  0.204
  2  0.024  0.000  0.000  0.000  0.001  0.009  0.008  0.004  0.004  0.049
  3  0.058  0.000  0.000  0.000  0.006  0.012  0.004  0.003  0.006  0.090
  4  0.063  0.000  0.000  0.000  0.007  0.008  0.003  0.008  0.006  0.096
  5  0.000  0.030  0.029  0.062  0.000  0.000  0.000  0.000  0.000  0.121
  6  0.000  0.030  0.029  0.062  0.000  0.000  0.000  0.000  0.000  0.121
tot  0.300  0.060  0.058  0.124  0.028  0.047  0.015  0.028  0.020  0.680
 
band  33 # energy    9.85257796 # occ.  0.00000000
 
ion      s     py     pz     px    dxy    dyz    dz2    dxz    dx2    tot
  1  0.035  0.000  0.000  0.000  0.004  0.005  0.009  0.006  0.002  0.062
  2  0.159  0.000  0.000  0.000  0.017  0.017  0.002  0.012  0.002  0.209
  3  0.009  0.000  0.000  0.000  0.004  0.002  0.007  0.004  0.006  0.031
  4  0.097  0.000  0.000  0.000  0.013  0.012  0.002  0.006  0.006  0.136
  5  0.000  0.031  0.047  0.043  0.000  0.000  0.000  0.000  0.000  0.121
  6  0.000  0.031  0.047  0.043  0.000  0.000  0.000  0.000  0.000  0.121
tot  0.300  0.062  0.094  0.086  0.038  0.036  0.019  0.029  0.016  0.680
 
band  34 # energy    9.85287749 # occ.  0.00000000
 
ion      s     py     pz     px    dxy    dyz    dz2    dxz    dx2    tot
  1  0.036  0.000  0.000  0.000  0.007  0.003  0.004  0.006  0.007  0.063
  2  0.042  0.000  0.000  0.000  0.008  0.000  0.003  0.009  0.007  0.071
  3  0.158  0.000  0.000  0.000  0.015  0.012  0.003  0.018  0.001  0.208
  4  0.065  0.000  0.000  0.000  0.006  0.006  0.008  0.012  0.001  0.097
  5  0.000  0.060  0.045  0.016  0.000  0.000  0.000  0.000  0.000  0.121
  6  0.000  0.060  0.045  0.016  0.000  0.000  0.000  0.000  0.000  0.121
tot  0.300  0.120  0.090  0.031  0.037  0.020  0.019  0.045  0.017  0.680
 
band  35 # energy   11.35633732 # occ.  0.00000000
 
ion      s     py     pz     px    dxy    dyz    dz2    dxz    dx2    tot
  1  0.000  0.004  0.030  0.054  0.000  0.000  0.000  0.000  0.000  0.088
  2  0.000  0.078  0.030  0.021  0.000  0.000  0.000  0.000  0.000  0.129
  3  0.000  0.004  0.022  0.021  0.000  0.000  0.000  0.000  0.000  0.047
  4  0.000  0.078  0.022  0.054  0.000  0.000  0.000  0.000  0.000  0.153
  5  0.000  0.000  0.000  0.000  0.000  0.000  0.000  0.000  0.000  0.000
  6  0.000  0.000  0.000  0.000  0.000  0.000  0.000  0.000  0.000  0.000
tot  0.000  0.163  0.105  0.150  0.000  0.000  0.000  0.000  0.000  0.417
 
band  36 # energy   11.35637778 # occ.  0.00000000
 
ion      s     py     pz     px    dxy    dyz    dz2    dxz    dx2    tot
  1  0.000  0.074  0.019  0.030  0.000  0.000  0.000  0.000  0.000  0.122
  2  0.000  0.007  0.018  0.044  0.000  0.000  0.000  0.000  0.000  0.069
  3  0.000  0.075  0.035  0.044  0.000  0.000  0.000  0.000  0.000  0.154
  4  0.000  0.007  0.036  0.029  0.000  0.000  0.000  0.000  0.000  0.072
  5  0.000  0.000  0.000  0.000  0.000  0.000  0.000  0.000  0.000  0.000
  6  0.000  0.000  0.000  0.000  0.000  0.000  0.000  0.000  0.000  0.000
tot  0.000  0.163  0.107  0.148  0.000  0.000  0.000  0.000  0.000  0.417
 

 k-point    2 :    0.33333333 0.00000000 0.00000000     weight = 0.22222222

band   1 # energy  -17.55765802 # occ.  2.00000000
 
ion      s     py     pz     px    dxy    dyz    dz2    dxz    dx2    tot
  1  0.014  0.002  0.002  0.002  0.004  0.004  0.000  0.004  0.000  0.031
  2  0.014  0.002  0.002  0.002  0.004  0.004  0.000  0.004  0.000  0.031
  3  0.014  0.002  0.002  0.002  0.004  0.004  0.000  0.004  0.000  0.031
  4  0.014  0.002  0.002  0.002  0.004  0.004  0.000  0.004  0.000  0.031
  5  0.371  0.000  0.000  0.000  0.000  0.000  0.000  0.000  0.000  0.371
  6  0.371  0.000  0.000  0.000  0.000  0.000  0.000  0.000  0.000  0.371
tot  0.797  0.006  0.006  0.008  0.017  0.016  0.000  0.017  0.000  0.867
 
band   2 # energy  -17.21848880 # occ.  2.00000000
 
ion      s     py     pz     px    dxy    dyz    dz2    dxz    dx2    tot
  1  0.005  0.005  0.005  0.006  0.002  0.002  0.000  0.002  0.000  0.025
  2  0.005  0.005  0.005  0.006  0.002  0.002  0.000  0.002  0.000  0.025
  3  0.005  0.005  0.005  0.006  0.002  0.002  0.000  0.002  0.000  0.025
  4  0.005  0.005  0.005  0.006  0.002  0.002  0.000  0.002  0.000  0.025
  5  0.384  0.000  0.000  0.000  0.000  0.000  0.000  0.000  0.000  0.385
  6  0.384  0.000  0.000  0.000  0.000  0.000  0.000  0.000  0.000  0.385
tot  0.787  0.021  0.021  0.023  0.006  0.006  0.000  0.006  0.000  0.871
 
band   3 # energy   -4.53763664 # occ.  2.00000000
 
ion      s     py     pz     px    dxy    dyz    dz2    dxz    dx2    tot
  1  0.023  0.004  0.004  0.000  0.003  0.026  0.005  0.003  0.014  0.083
  2  0.023  0.004  0.004  0.000  0.003  0.026  0.005  0.003  0.014  0.083
  3  0.023  0.004  0.004  0.000  0.003  0.026  0.005  0.003  0.014  0.083
  4  0.023  0.004  0.004  0.000  0.003  0.026  0.005  0.003  0.014  0.083
  5  0.003  0.000  0.000  0.219  0.000  0.000  0.000  0.000  0.000  0.222
  6  0.003  0.000  0.000  0.219  0.000  0.000  0.000  0.000  0.000  0.222
tot  0.097  0.018  0.018  0.439  0.013  0.103  0.019  0.013  0.056  0.775
 
band   4 # energy   -4.44125667 # occ.  2.00000000
 
ion      s     py     pz     px    dxy    dyz    dz2    dxz    dx2    tot
  1  0.009  0.000  0.001  0.000  0.005  0.004  0.010  0.019  0.010  0.059
  2  0.031  0.000  0.001  0.002  0.027  0.014  0.002  0.041  0.011  0.128
  3  0.031  0.000  0.001  0.002  0.027  0.014  0.002  0.041  0.011  0.128
  4  0.009  0.000  0.001  0.000  0.005  0.004  0.010  0.019  0.010  0.059
  5  0.000  0.209  0.020  0.000  0.000  0.000  0.000  0.000  0.000  0.229
  6  0.000  0.142  0.087  0.000  0.000  0.000  0.000  0.000  0.000  0.229
tot  0.080  0.352  0.111  0.004  0.065  0.036  0.023  0.119  0.043  0.834
 
band   5 # energy   -4.44125667 # occ.  2.00000000
 
ion      s     py     pz     px    dxy    dyz    dz2    dxz    dx2    tot
  1  0.031  0.001  0.000  0.002  0.041  0.014  0.010  0.027  0.003  0.128
  2  0.009  0.001  0.000  0.000  0.019  0.004  0.018  0.005  0.002  0.059
  3  0.009  0.001  0.000  0.000  0.019  0.004  0.018  0.005  0.002  0.059
  4  0.031  0.001  0.000  0.002  0.041  0.014  0.010  0.027  0.003  0.128
  5  0.000  0.020  0.209  0.000  0.000  0.000  0.000  0.000  0.000  0.229
  6  0.000  0.087  0.142  0.000  0.000  0.000  0.000  0.000  0.000  0.229
tot  0.080  0.111  0.352  0.004  0.119  0.036  0.056  0.065  0.010  0.834
 
band   6 # energy   -3.65715257 # occ.  2.00000000
 
ion      s     py     pz     px    dxy    dyz    dz2    dxz    dx2    tot
  1  0.025  0.011  0.011  0.000  0.000  0.007  0.002  0.000  0.005  0.061
  2  0.025  0.011  0.011  0.000  0.000  0.007  0.002  0.000  0.005  0.061
  3  0.025  0.011  0.011  0.000  0.000  0.007  0.002  0.000  0.005  0.061
  4  0.025  0.011  0.011  0.000  0.000  0.007  0.002  0.000  0.005  0.061
  5  0.007  0.000  0.000  0.224  0.000  0.000  0.000  0.000  0.000  0.231
  6  0.007  0.000  0.000  0.224  0.000  0.000  0.000  0.000  0.000  0.231
tot  0.113  0.043  0.043  0.448  0.002  0.028  0.007  0.002  0.021  0.706
 
band   7 # energy   -3.20029411 # occ.  2.00000000
 
ion      s     py     pz     px    dxy    dyz    dz2    dxz    dx2    tot
  1  0.002  0.006  0.008  0.019  0.006  0.002  0.012  0.010  0.005  0.068
  2  0.001  0.003  0.005  0.008  0.004  0.001  0.027  0.009  0.010  0.067
  3  0.001  0.003  0.005  0.008  0.004  0.001  0.027  0.009  0.010  0.067
  4  0.002  0.006  0.008  0.019  0.006  0.002  0.012  0.010  0.005  0.068
  5  0.000  0.114  0.147  0.000  0.000  0.000  0.000  0.000  0.000  0.261
  6  0.000  0.216  0.045  0.000  0.000  0.000  0.000  0.000  0.000  0.261
tot  0.006  0.348  0.217  0.053  0.020  0.007  0.077  0.037  0.029  0.794
 
band   8 # energy   -3.20029411 # occ.  2.00000000
 
ion      s     py     pz     px    dxy    dyz    dz2    dxz    dx2    tot
  1  0.001  0.005  0.003  0.008  0.009  0.001  0.028  0.004  0.009  0.067
  2  0.002  0.008  0.006  0.019  0.010  0.002  0.013  0.006  0.004  0.068
  3  0.002  0.008  0.006  0.019  0.010  0.002  0.013  0.006  0.004  0.068
  4  0.001  0.005  0.003  0.008  0.009  0.001  0.028  0.004  0.009  0.067
  5  0.000  0.147  0.114  0.000  0.000  0.000  0.000  0.000  0.000  0.261
  6  0.000  0.045  0.216  0.000  0.000  0.000  0.000  0.000  0.000  0.261
tot  0.006  0.217  0.348  0.053  0.037  0.007  0.081  0.020  0.025  0.794
 
band   9 # energy   -1.59662178 # occ.  2.00000000
 
ion      s     py     pz     px    dxy    dyz    dz2    dxz    dx2    tot
  1  0.028  0.000  0.000  0.004  0.023  0.078  0.000  0.023  0.000  0.158
  2  0.028  0.000  0.000  0.004  0.023  0.078  0.000  0.023  0.000  0.158
  3  0.028  0.000  0.000  0.004  0.023  0.078  0.000  0.023  0.000  0.158
  4  0.028  0.000  0.000  0.004  0.023  0.078  0.000  0.023  0.000  0.158
  5  0.002  0.000  0.000  0.033  0.000  0.000  0.000  0.000  0.000  0.035
  6  0.002  0.000  0.000  0.033  0.000  0.000  0.000  0.000  0.000  0.035
tot  0.118  0.001  0.001  0.083  0.092  0.313  0.000  0.092  0.001  0.701
 
band  10 # energy   -0.66509378 # occ.  2.00000000
 
ion      s     py     pz     px    dxy    dyz    dz2    dxz    dx2    tot
  1  0.009  0.000  0.000  0.004  0.017  0.093  0.017  0.017  0.051  0.206
  2  0.009  0.000  0.000  0.004  0.017  0.093  0.017  0.017  0.051  0.206
  3  0.009  0.000  0.000  0.004  0.017  0.093  0.017  0.017  0.051  0.206
  4  0.009  0.000  0.000  0.004  0.017  0.093  0.017  0.017  0.051  0.206
  5  0.000  0.000  0.000  0.005  0.000  0.000  0.000  0.000  0.000  0.005
  6  0.000  0.000  0.000  0.005  0.000  0.000  0.000  0.000  0.000  0.005