/var/spool/slurmd/job16098373/slurm_script: line 17: ulimit: max memory size: cannot modify limit: Operation not permitted
perl: warning: Setting locale failed.
perl: warning: Please check that your locale settings:
	LANGUAGE = (unset),
	LC_ALL = (unset),
	LC_CTYPE = "UTF-8",
	LANG = "en_US.iso885915"
    are supported and installed on your system.
perl: warning: Falling back to the standard locale ("C").
Starting job 16098373 ("dos1") on c9-[22,24] at Wed Dec 7 21:18:06 CET 2016
 running on   32 total cores
 distrk:  each k-point on   32 cores,    1 groups
 distr:  one band on    8 cores,    4 groups
 using from now: INCAR     
 vasp.5.4.1 05Feb16 (build Aug 09 2016 09:44:09) complex                        
  
 POSCAR found type information on POSCAR  Cu O 
 POSCAR found :  2 types and       6 ions

 ----------------------------------------------------------------------------- 
|                                                                             |
|  ADVICE TO THIS USER RUNNING 'VASP/VAMP'   (HEAR YOUR MASTER'S VOICE ...):  |
|                                                                             |
|      You have a (more or less) 'small supercell' and for smaller cells      |
|      it is recommended  to use the reciprocal-space projection scheme!      |
|      The real space optimization is not  efficient for small cells and it   |
|      is also less accurate ...                                              |
|      Therefore set LREAL=.FALSE. in the  INCAR file                         |
|                                                                             |
 ----------------------------------------------------------------------------- 

 LDA part: xc-table for Pade appr. of Perdew
 generate k-points for:    3    3    3
 WARNING: stress and forces are not correct
 POSCAR, INCAR and KPOINTS ok, starting setup
 WARNING: small aliasing (wrap around) errors must be expected
 FFT: planning ...
 WAVECAR not read
 charge-density read from file: unknown                                 
 entering main loop
       N       E                     dE             d eps       ncg     rms          rms(c)
DAV:   1     0.462207424704E+03    0.46221E+03   -0.29328E+04   288   0.237E+03
DAV:   2     0.316111055454E+02   -0.43060E+03   -0.40955E+03   288   0.458E+02
DAV:   3    -0.243969822797E+02   -0.56008E+02   -0.54218E+02   312   0.166E+02
DAV:   4    -0.271843646188E+02   -0.27874E+01   -0.27623E+01   316   0.347E+01
DAV:   5    -0.272198160740E+02   -0.35451E-01   -0.35427E-01   316   0.389E+00
RMM:   6    -0.272203180315E+02   -0.50196E-03   -0.50196E-03   296   0.401E-01
RMM:   7    -0.272203417574E+02   -0.23726E-04   -0.25905E-04   325   0.101E-01
RMM:   8    -0.272203443918E+02   -0.26344E-05   -0.24416E-05   248   0.189E-02
RMM:   9    -0.272203444026E+02   -0.10787E-07   -0.32478E-07   189   0.499E-03
   1 F= -.27220344E+02 E0= -.27220330E+02  d E =-.280309E-04

Currently Loaded Modulefiles:
  1) intel/2015.3       4) gnuplot/5.0.4      7) vasp/5.4.1.Feb16
  2) libffi/3.0.13      5) vesta/3.3.8
  3) python2/2.7.10     6) intel/2016.1

Job step resource usage:
       JobID    JobName  AllocCPUS  MaxVMSize     MaxRSS    Elapsed ExitCode 
------------ ---------- ---------- ---------- ---------- ---------- -------- 
16098373           dos1         32                         00:00:18      0:0 
16098373.0         true          2    273524K       645K   00:00:03      0:0 
16098373.1    pmi_proxy          2    273524K       615K   00:00:10      0:0 

Job 16098373 ("dos1") completed on c9-[22,24] at Wed Dec 7 21:18:19 CET 2016
