<?xml version="1.0" encoding="ISO-8859-1"?>
<modeling>
 <generator>
  <i name="program" type="string">vasp </i>
  <i name="version" type="string">5.4.1  </i>
  <i name="subversion" type="string">05Feb16 (build Aug 09 2016 09:44:09) complex                          parallel </i>
  <i name="platform" type="string">Abel-impi-ifc-cuda </i>
  <i name="date" type="string">2016 12 07 </i>
  <i name="time" type="string">21:18:12 </i>
 </generator>
 <incar>
  <i type="string" name="PREC">normal    ! low/normal/accurate</i>
  <i type="string" name="ALGO"> Fast      ! Algorithm for electronic re</i>
  <i type="int" name="ICHARG">    11</i>
  <i type="int" name="NELMIN">     5</i>
  <i name="EDIFF">      0.00000100</i>
  <i type="int" name="NSW">     0</i>
  <i name="ENCUT">    600.00000000</i>
  <i type="int" name="NEDOS">  2401</i>
  <i type="string" name="LREAL"> Auto      ! Projection in reciprocal sp</i>
  <i name="EMIN">    -20.00000000</i>
  <i name="EMAX">     20.00000000</i>
  <i type="int" name="ISMEAR">     0</i>
  <i name="SIGMA">      0.10000000</i>
  <i type="logical" name="LWAVE"> F  </i>
  <i type="logical" name="LORBIT"> F  </i>
  <i type="logical" name="LELF"> T  </i>
  <v type="int" name="KPOINT_BSE">    -1     0     0     0</v>
 </incar>
 <kpoints>
  <generation param="Gamma">
   <v type="int" name="divisions">       3        3        3 </v>
   <v name="usershift">      0.00000000       0.00000000       0.00000000 </v>
   <v name="genvec1">      0.33333333       0.00000000       0.00000000 </v>
   <v name="genvec2">      0.00000000       0.33333333       0.00000000 </v>
   <v name="genvec3">      0.00000000       0.00000000       0.33333333 </v>
   <v name="shift">      0.00000000       0.00000000       0.00000000 </v>
  </generation>
  <varray name="kpointlist" >
   <v>       0.00000000       0.00000000       0.00000000 </v>
   <v>       0.33333333       0.00000000       0.00000000 </v>
   <v>       0.33333333       0.33333333       0.00000000 </v>
   <v>       0.33333333       0.33333333       0.33333333 </v>
  </varray>
  <varray name="weights" >
   <v>       0.03703704 </v>
   <v>       0.22222222 </v>
   <v>       0.44444444 </v>
   <v>       0.29629630 </v>
  </varray>
 </kpoints>
 <parameters>
  <separator name="general" >
   <i type="string" name="SYSTEM">unknown system</i>
   <i type="logical" name="LCOMPAT"> F  </i>
  </separator>
  <separator name="electronic" >
   <i type="string" name="PREC">normal</i>
   <i name="ENMAX">    600.00000000</i>
   <i name="ENAUG">    605.39200000</i>
   <i name="EDIFF">      0.00000100</i>
   <i type="int" name="IALGO">    68</i>
   <i type="int" name="IWAVPR">    10</i>
   <i type="int" name="NBANDS">    36</i>
   <i name="NELECT">     56.00000000</i>
   <i type="int" name="TURBO">     0</i>
   <i type="int" name="IRESTART">     0</i>
   <i type="int" name="NREBOOT">     0</i>
   <i type="int" name="NMIN">     0</i>
   <i name="EREF">      0.00000000</i>
   <separator name="electronic smearing" >
    <i type="int" name="ISMEAR">     0</i>
    <i name="SIGMA">      0.10000000</i>
    <i name="KSPACING">      0.50000000</i>
    <i type="logical" name="KGAMMA"> T  </i>
   </separator>
   <separator name="electronic projectors" >
    <i type="logical" name="LREAL"> T  </i>
    <v name="ROPT">     -0.00050000     -0.00050000</v>
    <i type="int" name="LMAXPAW">  -100</i>
    <i type="int" name="LMAXMIX">     2</i>
    <i type="logical" name="NLSPLINE"> F  </i>
   </separator>
   <separator name="electronic startup" >
    <i type="int" name="ISTART">     0</i>
    <i type="int" name="ICHARG">    11</i>
    <i type="int" name="INIWAV">     1</i>
   </separator>
   <separator name="electronic spin" >
    <i type="int" name="ISPIN">     1</i>
    <i type="logical" name="LNONCOLLINEAR"> F  </i>
    <v name="MAGMOM">      1.00000000      1.00000000      1.00000000      1.00000000      1.00000000      1.00000000</v>
    <i name="NUPDOWN">     -1.00000000</i>
    <i type="logical" name="LSORBIT"> F  </i>
    <v name="SAXIS">      0.00000000      0.00000000      1.00000000</v>
    <i type="logical" name="LSPIRAL"> F  </i>
    <v name="QSPIRAL">      0.00000000      0.00000000      0.00000000</v>
    <i type="logical" name="LZEROZ"> F  </i>
   </separator>
   <separator name="electronic exchange-correlation" >
    <i type="logical" name="LASPH"> F  </i>
    <i type="logical" name="LMETAGGA"> F  </i>
   </separator>
   <separator name="electronic convergence" >
    <i type="int" name="NELM">    60</i>
    <i type="int" name="NELMDL">    -5</i>
    <i type="int" name="NELMIN">     5</i>
    <i name="ENINI">    600.00000000</i>
    <separator name="electronic convergence detail" >
     <i type="logical" name="LDIAG"> T  </i>
     <i type="logical" name="LSUBROT"> F  </i>
     <i name="WEIMIN">      0.00000000</i>
     <i name="EBREAK">      0.00000001</i>
     <i name="DEPER">      0.30000000</i>
     <i type="int" name="NRMM">     4</i>
     <i name="TIME">      0.40000000</i>
    </separator>
   </separator>
   <separator name="electronic mixer" >
    <i name="AMIX">      0.40000000</i>
    <i name="BMIX">      1.00000000</i>
    <i name="AMIN">      0.10000000</i>
    <i name="AMIX_MAG">      1.60000000</i>
    <i name="BMIX_MAG">      1.00000000</i>
    <separator name="electronic mixer details" >
     <i type="int" name="IMIX">     4</i>
     <i type="logical" name="MIXFIRST"> F  </i>
     <i type="int" name="MAXMIX">   -45</i>
     <i name="WC">    100.00000000</i>
     <i type="int" name="INIMIX">     1</i>
     <i type="int" name="MIXPRE">     1</i>
     <i type="int" name="MREMOVE">     5</i>
    </separator>
   </separator>
   <separator name="electronic dipolcorrection" >
    <i type="logical" name="LDIPOL"> F  </i>
    <i type="logical" name="LMONO"> F  </i>
    <i type="int" name="IDIPOL">     0</i>
    <i name="EPSILON">      1.00000000</i>
    <v name="DIPOL">   -100.00000000   -100.00000000   -100.00000000</v>
    <i name="EFIELD">      0.00000000</i>
   </separator>
  </separator>
  <separator name="grids" >
   <i type="int" name="NGX">    28</i>
   <i type="int" name="NGY">    28</i>
   <i type="int" name="NGZ">    28</i>
   <i type="int" name="NGXF">    56</i>
   <i type="int" name="NGYF">    56</i>
   <i type="int" name="NGZF">    56</i>
   <i type="logical" name="ADDGRID"> F  </i>
  </separator>
  <separator name="ionic" >
   <i type="int" name="NSW">     0</i>
   <i type="int" name="IBRION">    -1</i>
   <i type="int" name="ISIF">     2</i>
   <i name="PSTRESS">      0.00000000</i>
   <i name="EDIFFG">      0.00001000</i>
   <i type="int" name="NFREE">     0</i>
   <i name="POTIM">      0.50000000</i>
   <i name="SMASS">     -3.00000000</i>
   <i name="SCALEE">      1.00000000</i>
  </separator>
  <separator name="ionic md" >
   <i name="TEBEG">      0.00010000</i>
   <i name="TEEND">      0.00010000</i>
   <i type="int" name="NBLOCK">     1</i>
   <i type="int" name="KBLOCK">     1</i>
   <i type="int" name="NPACO">   256</i>
   <i name="APACO">     16.00000000</i>
  </separator>
  <separator name="symmetry" >
   <i type="int" name="ISYM">     2</i>
   <i name="SYMPREC">      0.00001000</i>
  </separator>
  <separator name="dos" >
   <i type="logical" name="LORBIT"> F  </i>
   <v name="RWIGS">     -1.00000000     -1.00000000</v>
   <i type="int" name="NEDOS">  2401</i>
   <i name="EMIN">    -20.00000000</i>
   <i name="EMAX">     20.00000000</i>
   <i name="EFERMI">      0.00000000</i>
  </separator>
  <separator name="writing" >
   <i type="int" name="NWRITE">     2</i>
   <i type="logical" name="LWAVE"> F  </i>
   <i type="logical" name="LCHARG"> T  </i>
   <i type="logical" name="LPARD"> F  </i>
   <i type="logical" name="LVTOT"> F  </i>
   <i type="logical" name="LVHAR"> F  </i>
   <i type="logical" name="LELF"> T  </i>
   <i type="logical" name="LOPTICS"> F  </i>
   <v name="STM">      0.00000000      0.00000000      0.00000000      0.00000000      0.00000000      0.00000000      0.00000000</v>
  </separator>
  <separator name="performance" >
   <i type="int" name="NPAR">     4</i>
   <i type="int" name="NSIM">     4</i>
   <i type="int" name="NBLK">    -1</i>
   <i type="logical" name="LPLANE"> T  </i>
   <i type="logical" name="LSCALAPACK"> F  </i>
   <i type="logical" name="LSCAAWARE"> F  </i>
   <i type="logical" name="LSCALU"> F  </i>
   <i type="logical" name="LASYNC"> F  </i>
   <i type="logical" name="LORBITALREAL"> F  </i>
  </separator>
  <separator name="miscellaneous" >
   <i type="int" name="IDIOT">     3</i>
   <i type="logical" name="LMUSIC"> F  </i>
   <v name="POMASS">     63.54600000     16.00000000</v>
   <v name="DARWINR">      0.00000000      0.00000000</v>
   <v name="DARWINV">      1.00000000      1.00000000</v>
   <i type="logical" name="LCORR"> T  </i>
  </separator>
  <i type="logical" name="GGA_COMPAT"> T  </i>
  <i type="logical" name="LBERRY"> F  </i>
  <i type="int" name="ICORELEVEL">     0</i>
  <i type="logical" name="LDAU"> F  </i>
  <i type="int" name="I_CONSTRAINED_M">     0</i>
  <separator name="electronic exchange-correlation" >
   <i type="string" name="GGA">--</i>
   <i type="int" name="VOSKOWN">     0</i>
   <i type="logical" name="LHFCALC"> F  </i>
   <i type="string" name="PRECFOCK"></i>
   <i type="logical" name="LSYMGRAD"> F  </i>
   <i type="logical" name="LHFONE"> F  </i>
   <i type="logical" name="LRHFCALC"> F  </i>
   <i type="logical" name="LTHOMAS"> F  </i>
   <i type="logical" name="LMODELHF"> F  </i>
   <i name="ENCUT4O">     -1.00000000</i>
   <i type="int" name="EXXOEP">     0</i>
   <i type="int" name="FOURORBIT">     0</i>
   <i name="AEXX">      0.00000000</i>
   <i name="HFALPHA">      0.00000000</i>
   <i name="MCALPHA">      0.00000000</i>
   <i name="ALDAX">      1.00000000</i>
   <i name="AGGAX">      1.00000000</i>
   <i name="ALDAC">      1.00000000</i>
   <i name="AGGAC">      1.00000000</i>
   <i type="int" name="NKREDX">     1</i>
   <i type="int" name="NKREDY">     1</i>
   <i type="int" name="NKREDZ">     1</i>
   <i type="logical" name="SHIFTRED"> F  </i>
   <i type="logical" name="ODDONLY"> F  </i>
   <i type="logical" name="EVENONLY"> F  </i>
   <i type="int" name="LMAXFOCK">     0</i>
   <i type="int" name="NMAXFOCKAE">     0</i>
   <i type="logical" name="LFOCKAEDFT"> F  </i>
   <i name="HFSCREEN">      0.00000000</i>
   <i name="HFSCREENC">      0.00000000</i>
   <i type="int" name="NBANDSGWLOW">     0</i>
  </separator>
  <separator name="vdW DFT" >
   <i type="logical" name="LUSE_VDW"> F  </i>
   <i name="Zab_VDW">     -0.84910000</i>
   <i name="PARAM1">      0.12340000</i>
   <i name="PARAM2">      1.00000000</i>
   <i name="PARAM3">      0.00000000</i>
  </separator>
  <separator name="model GW" >
   <i type="int" name="MODEL_GW">     0</i>
   <i name="MODEL_EPS0">      8.02486520</i>
   <i name="MODEL_ALPHA">      1.00000000</i>
  </separator>
  <separator name="linear response parameters" >
   <i type="logical" name="LEPSILON"> F  </i>
   <i type="logical" name="LRPA"> F  </i>
   <i type="logical" name="LNABLA"> F  </i>
   <i type="logical" name="LVEL"> F  </i>
   <i type="int" name="KINTER">     0</i>
   <i name="CSHIFT">      0.10000000</i>
   <i name="OMEGAMAX">     -1.00000000</i>
   <i name="DEG_THRESHOLD">      0.00200000</i>
  </separator>
  <separator name="orbital magnetization" >
   <i type="logical" name="NUCIND"> F  </i>
   <v name="MAGPOS">      0.00000000      0.00000000      0.00000000</v>
   <i type="logical" name="LNICSALL"> T  </i>
   <i type="logical" name="ORBITALMAG"> F  </i>
   <i type="logical" name="LMAGBLOCH"> F  </i>
   <i type="logical" name="LCHIMAG"> F  </i>
   <i type="logical" name="LGAUGE"> T  </i>
   <i type="int" name="MAGATOM">     0</i>
   <v name="MAGDIPOL">      0.00000000      0.00000000      0.00000000</v>
   <v name="AVECCONST">      0.00000000      0.00000000      0.00000000</v>
  </separator>
  <separator name="response functions" >
   <i type="logical" name="LADDER"> F  </i>
   <i type="logical" name="LFXC"> F  </i>
   <i type="logical" name="LHARTREE"> T  </i>
   <i type="int" name="IBSE">     0</i>
   <v type="int" name="KPOINT">    -1     0     0     0</v>
   <i type="logical" name="LTCTE"> F  </i>
   <i type="logical" name="LTETE"> F  </i>
   <i type="logical" name="LTRIPLET"> F  </i>
   <i type="logical" name="LFXCEPS"> F  </i>
   <i type="logical" name="LFXHEG"> F  </i>
   <i type="int" name="NATURALO">     0</i>
   <i type="logical" name="L2ORDER"> F  </i>
   <i type="logical" name="LUSEW"> F  </i>
   <i name="ENCUTGW">     -2.00000000</i>
   <i name="ENCUTGWSOFT">     -2.00000000</i>
   <i name="ENCUTLF">     -1.00000000</i>
   <i type="int" name="LMAXMP2">    -1</i>
   <i name="SCISSOR">      0.00000000</i>
   <i type="int" name="NOMEGA">     0</i>
   <i type="int" name="NOMEGAR">     0</i>
   <i type="int" name="NBANDSGW">    -1</i>
   <i type="int" name="NBANDSO">    -1</i>
   <i type="int" name="NBANDSV">    -1</i>
   <i type="int" name="NELM">     1</i>
   <i type="int" name="NELMHF">     1</i>
   <i type="int" name="DIM">     3</i>
   <i type="int" name="ANTIRES">     0</i>
   <i name="OMEGAMAX">    -30.00000000</i>
   <i name="OMEGAMIN">    -30.00000000</i>
   <i name="OMEGATL">   -200.00000000</i>
   <i type="int" name="OMEGAGRID">     0</i>
   <i name="CSHIFT">     -0.10000000</i>
   <i type="logical" name="SELFENERGY"> F  </i>
   <i type="logical" name="LSPECTRAL"> F  </i>
   <i type="logical" name="LSPECTRALGW"> F  </i>
   <i type="logical" name="LSINGLES"> F  </i>
   <i type="logical" name="LFERMIGW"> F  </i>
   <i type="logical" name="ODDONLYGW"> F  </i>
   <i type="logical" name="EVENONLYGW"> F  </i>
   <i type="int" name="NKREDLFX">     1</i>
   <i type="int" name="NKREDLFY">     1</i>
   <i type="int" name="NKREDLFZ">     1</i>
   <i type="int" name="MAXMEM">  1800</i>
   <i type="int" name="TELESCOPE">     0</i>
   <i type="int" name="TAUPAR">     1</i>
   <i type="int" name="OMEGAPAR">    -1</i>
   <i name="LAMBDA">      1.00000000</i>
  </separator>
  <separator name="External order field" >
   <i name="OFIELD_KAPPA">      0.00000000</i>
   <v name="OFIELD_K">      0.00000000      0.00000000      0.00000000</v>
   <i name="OFIELD_Q6_NEAR">      0.00000000</i>
   <i name="OFIELD_Q6_FAR">      0.00000000</i>
   <i name="OFIELD_A">      0.00000000</i>
  </separator>
 </parameters>
 <atominfo>
  <atoms>       6 </atoms>
  <types>       2 </types>
  <array name="atoms" >
   <dimension dim="1">ion</dimension>
   <field type="string">element</field>
   <field type="int">atomtype</field>
   <set>
    <rc><c>Cu</c><c>   1</c></rc>
    <rc><c>Cu</c><c>   1</c></rc>
    <rc><c>Cu</c><c>   1</c></rc>
    <rc><c>Cu</c><c>   1</c></rc>
    <rc><c>O </c><c>   2</c></rc>
    <rc><c>O </c><c>   2</c></rc>
   </set>
  </array>
  <array name="atomtypes" >
   <dimension dim="1">type</dimension>
   <field type="int">atomspertype</field>
   <field type="string">element</field>
   <field>mass</field>
   <field>valence</field>
   <field type="string">pseudopotential</field>
   <set>
    <rc><c>   4</c><c>Cu</c><c>     63.54600000</c><c>     11.00000000</c><c> PAW_PBE Cu 05Jan2001                   </c></rc>
    <rc><c>   2</c><c>O </c><c>     16.00000000</c><c>      6.00000000</c><c> PAW_PBE O 08Apr2002                    </c></rc>
   </set>
  </array>
 </atominfo>
 <structure name="initialpos" >
  <crystal>
   <varray name="basis" >
    <v>       4.31332897       0.00000000       0.00000000 </v>
    <v>       0.00000000       4.31332897       0.00000000 </v>
    <v>       0.00000000       0.00000000       4.31332897 </v>
   </varray>
   <i name="volume">     80.24865198 </i>
   <varray name="rec_basis" >
    <v>       0.23183949       0.00000000       0.00000000 </v>
    <v>       0.00000000       0.23183949       0.00000000 </v>
    <v>       0.00000000       0.00000000       0.23183949 </v>
   </varray>
  </crystal>
  <varray name="positions" >
   <v>       0.25000000       0.25000000       0.25000000 </v>
   <v>       0.75000000       0.75000000       0.25000000 </v>
   <v>       0.75000000       0.25000000       0.75000000 </v>
   <v>       0.25000000       0.75000000       0.75000000 </v>
   <v>       0.00000000       0.00000000       0.00000000 </v>
   <v>       0.50000000       0.50000000       0.50000000 </v>
  </varray>
 </structure>
 <calculation>
  <scstep>
   <time name="dav">    0.09    0.09</time>
   <time name="total">    0.12    0.20</time>
   <energy>
    <i name="alphaZ">    356.52313969 </i>
    <i name="ewald">  -4494.89014999 </i>
    <i name="hartreedc">  -1852.82797080 </i>
    <i name="XCdc">    227.44739390 </i>
    <i name="pawpsdc">   4964.06876492 </i>
    <i name="pawaedc">  -5549.62373833 </i>
    <i name="eentropy">     -0.00862582 </i>
    <i name="bandstr">    382.88319383 </i>
    <i name="atom">   6428.63541732 </i>
    <i name="e_fr_energy">    462.20742470 </i>
    <i name="e_wo_entrp">    462.21605052 </i>
    <i name="e_0_energy">    462.21173761 </i>
   </energy>
  </scstep>
  <scstep>
   <time name="dav">    0.08    0.08</time>
   <time name="total">    0.08    0.09</time>
   <energy>
    <i name="e_fr_energy">     31.61110555 </i>
    <i name="e_wo_entrp">     31.62041587 </i>
    <i name="e_0_energy">     31.61576071 </i>
   </energy>
  </scstep>
  <scstep>
   <time name="dav">    0.09    0.09</time>
   <time name="total">    0.09    0.09</time>
   <energy>
    <i name="e_fr_energy">    -24.39698228 </i>
    <i name="e_wo_entrp">    -24.39677994 </i>
    <i name="e_0_energy">    -24.39688111 </i>
   </energy>
  </scstep>
  <scstep>
   <time name="dav">    0.09    0.09</time>
   <time name="total">    0.09    0.10</time>
   <energy>
    <i name="e_fr_energy">    -27.18436462 </i>
    <i name="e_wo_entrp">    -27.18433592 </i>
    <i name="e_0_energy">    -27.18435027 </i>
   </energy>
  </scstep>
  <scstep>
   <time name="dav">    0.09    0.09</time>
   <time name="total">    0.09    0.10</time>
   <energy>
    <i name="e_fr_energy">    -27.21981607 </i>
    <i name="e_wo_entrp">    -27.21978804 </i>
    <i name="e_0_energy">    -27.21980206 </i>
   </energy>
  </scstep>
  <scstep>
   <time name="diag">    0.01    0.01</time>
   <time name="diis">    0.03    0.03</time>
   <time name="orth">    0.00    0.00</time>
   <time name="total">    0.05    0.05</time>
   <energy>
    <i name="e_fr_energy">    -27.22031803 </i>
    <i name="e_wo_entrp">    -27.22029000 </i>
    <i name="e_0_energy">    -27.22030402 </i>
   </energy>
  </scstep>
  <scstep>
   <time name="diag">    0.01    0.01</time>
   <time name="diis">    0.03    0.03</time>
   <time name="orth">    0.00    0.00</time>
   <time name="total">    0.05    0.06</time>
   <energy>
    <i name="e_fr_energy">    -27.22034176 </i>
    <i name="e_wo_entrp">    -27.22031373 </i>
    <i name="e_0_energy">    -27.22032774 </i>
   </energy>
  </scstep>
  <scstep>
   <time name="diag">    0.01    0.01</time>
   <time name="diis">    0.03    0.03</time>
   <time name="orth">    0.00    0.00</time>
   <time name="total">    0.05    0.05</time>
   <energy>
    <i name="e_fr_energy">    -27.22034439 </i>
    <i name="e_wo_entrp">    -27.22031636 </i>
    <i name="e_0_energy">    -27.22033038 </i>
   </energy>
  </scstep>
  <scstep>
   <time name="diag">    0.01    0.01</time>
   <time name="diis">    0.02    0.02</time>
   <time name="orth">    0.00    0.00</time>
   <time name="total">    0.04    0.05</time>
   <energy>
    <i name="alphaZ">    356.52313969 </i>
    <i name="ewald">  -4494.89014999 </i>
    <i name="hartreedc">  -1852.82797080 </i>
    <i name="XCdc">    227.44739390 </i>
    <i name="pawpsdc">   4964.06876492 </i>
    <i name="pawaedc">  -5549.62373833 </i>
    <i name="eentropy">     -0.00002803 </i>
    <i name="bandstr">   -106.55317306 </i>
    <i name="atom">   6428.63541732 </i>
    <i name="e_fr_energy">    -27.22034440 </i>
    <i name="e_wo_entrp">    -27.22031637 </i>
    <i name="e_0_energy">    -27.22033039 </i>
   </energy>
  </scstep>
  <structure>
   <crystal>
    <varray name="basis" >
     <v>       4.31332897       0.00000000       0.00000000 </v>
     <v>       0.00000000       4.31332897       0.00000000 </v>
     <v>       0.00000000       0.00000000       4.31332897 </v>
    </varray>
    <i name="volume">     80.24865198 </i>
    <varray name="rec_basis" >
     <v>       0.23183949       0.00000000       0.00000000 </v>
     <v>       0.00000000       0.23183949       0.00000000 </v>
     <v>       0.00000000       0.00000000       0.23183949 </v>
    </varray>
   </crystal>
   <varray name="positions" >
    <v>       0.25000000       0.25000000       0.25000000 </v>
    <v>       0.75000000       0.75000000       0.25000000 </v>
    <v>       0.75000000       0.25000000       0.75000000 </v>
    <v>       0.25000000       0.75000000       0.75000000 </v>
    <v>       0.00000000       0.00000000       0.00000000 </v>
    <v>       0.50000000       0.50000000       0.50000000 </v>
   </varray>
  </structure>
  <varray name="forces" >
   <v>      -0.00000000      -0.00000000      -0.00000000 </v>
   <v>      -0.00000000       0.00000000      -0.00000000 </v>
   <v>       0.00000000       0.00000000       0.00000000 </v>
   <v>       0.00000000      -0.00000000       0.00000000 </v>
   <v>       0.00000000       0.00000000      -0.00000000 </v>
   <v>       0.00000000       0.00000000      -0.00000000 </v>
  </varray>
  <varray name="stress" >
   <v>     -19.23629869       0.00000000       0.00000000 </v>
   <v>       0.00000000     -19.23629869       0.00000000 </v>
   <v>      -0.00000000       0.00000000     -19.23629869 </v>
  </varray>
  <energy>
   <i name="e_fr_energy">    -27.22034440 </i>
   <i name="e_wo_entrp">    -27.22033039 </i>
   <i name="e_0_energy">     -0.00002803 </i>
  </energy>
  <time name="totalsc">    0.93    1.13</time>
  <eigenvalues>
   <array>
    <dimension dim="1">band</dimension>
    <dimension dim="2">kpoint</dimension>
    <dimension dim="3">spin</dimension>
    <field>eigene</field>
    <field>occ</field>
    <set>
     <set comment="spin 1">
      <set comment="kpoint 1">
       <r>  -17.7295    1.0000 </r>
       <r>  -17.0524    1.0000 </r>
       <r>   -4.8050    1.0000 </r>
       <r>   -4.8050    1.0000 </r>
       <r>   -4.8050    1.0000 </r>
       <r>   -2.4906    1.0000 </r>
       <r>   -2.4624    1.0000 </r>
       <r>   -2.4624    1.0000 </r>
       <r>   -2.4624    1.0000 </r>
       <r>   -0.7366    1.0000 </r>
       <r>   -0.7366    1.0000 </r>
       <r>   -0.5961    1.0000 </r>
       <r>   -0.5961    1.0000 </r>
       <r>   -0.5961    1.0000 </r>
       <r>    0.1970    1.0000 </r>
       <r>    0.1970    1.0000 </r>
       <r>    0.3127    1.0000 </r>
       <r>    0.3127    1.0000 </r>
       <r>    0.3127    1.0000 </r>
       <r>    0.4247    1.0000 </r>
       <r>    0.4247    1.0000 </r>
       <r>    0.4247    1.0000 </r>
       <r>    0.6324    1.0000 </r>
       <r>    0.6324    1.0000 </r>
       <r>    0.6324    1.0000 </r>
       <r>    2.1357    0.9998 </r>
       <r>    2.1357    0.9998 </r>
       <r>    2.1357    0.9998 </r>
       <r>    2.6066    0.0007 </r>
       <r>    3.5087    0.0000 </r>
       <r>    3.5087    0.0000 </r>
       <r>    9.8526    0.0000 </r>
       <r>    9.8526    0.0000 </r>
       <r>    9.8529    0.0000 </r>
       <r>   11.3563    0.0000 </r>
       <r>   11.3564    0.0000 </r>
      </set>
      <set comment="kpoint 2">
       <r>  -17.5577    1.0000 </r>
       <r>  -17.2185    1.0000 </r>
       <r>   -4.5376    1.0000 </r>
       <r>   -4.4413    1.0000 </r>
       <r>   -4.4413    1.0000 </r>
       <r>   -3.6572    1.0000 </r>
       <r>   -3.2003    1.0000 </r>
       <r>   -3.2003    1.0000 </r>
       <r>   -1.5966    1.0000 </r>
       <r>   -0.6651    1.0000 </r>
       <r>   -0.5481    1.0000 </r>
       <r>   -0.3259    1.0000 </r>
       <r>   -0.1246    1.0000 </r>
       <r>   -0.1246    1.0000 </r>
       <r>    0.0244    1.0000 </r>
       <r>    0.1014    1.0000 </r>
       <r>    0.1584    1.0000 </r>
       <r>    0.2657    1.0000 </r>
       <r>    0.2971    1.0000 </r>
       <r>    0.2971    1.0000 </r>
       <r>    0.4116    1.0000 </r>
       <r>    0.4864    1.0000 </r>
       <r>    0.5399    1.0000 </r>
       <r>    0.5399    1.0000 </r>
       <r>    0.7705    1.0000 </r>
       <r>    0.7705    1.0000 </r>
       <r>    1.9078    1.0000 </r>
       <r>    1.9078    1.0000 </r>
       <r>    3.4944    0.0000 </r>
       <r>    4.8434    0.0000 </r>
       <r>    4.9521    0.0000 </r>
       <r>    8.1245    0.0000 </r>
       <r>    9.4861    0.0000 </r>
       <r>    9.4880    0.0000 </r>
       <r>    9.6622    0.0000 </r>
       <r>   10.0372    0.0000 </r>
      </set>
      <set comment="kpoint 3">
       <r>  -17.4613    1.0000 </r>
       <r>  -17.2910    1.0000 </r>
       <r>   -4.8910    1.0000 </r>
       <r>   -4.6039    1.0000 </r>
       <r>   -3.9824    1.0000 </r>
       <r>   -3.7989    1.0000 </r>
       <r>   -3.3928    1.0000 </r>
       <r>   -3.0369    1.0000 </r>
       <r>   -1.2120    1.0000 </r>
       <r>   -0.5222    1.0000 </r>
       <r>   -0.4927    1.0000 </r>
       <r>   -0.3592    1.0000 </r>
       <r>   -0.1809    1.0000 </r>
       <r>   -0.1098    1.0000 </r>
       <r>   -0.0384    1.0000 </r>
       <r>   -0.0294    1.0000 </r>
       <r>    0.0874    1.0000 </r>
       <r>    0.1764    1.0000 </r>
       <r>    0.2437    1.0000 </r>
       <r>    0.3440    1.0000 </r>
       <r>    0.4011    1.0000 </r>
       <r>    0.4046    1.0000 </r>
       <r>    0.5965    1.0000 </r>
       <r>    0.8035    1.0000 </r>
       <r>    0.8068    1.0000 </r>
       <r>    0.8598    1.0000 </r>
       <r>    1.5270    1.0000 </r>
       <r>    1.7255    1.0000 </r>
       <r>    3.9341    0.0000 </r>
       <r>    4.5401    0.0000 </r>
       <r>    5.6734    0.0000 </r>
       <r>    6.4937    0.0000 </r>
       <r>    8.7282    0.0000 </r>
       <r>    9.1283    0.0000 </r>
       <r>    9.2053    0.0000 </r>
       <r>   10.5260    0.0000 </r>
      </set>
      <set comment="kpoint 4">
       <r>  -17.5104    1.0000 </r>
       <r>  -17.2117    1.0000 </r>
       <r>   -4.6820    1.0000 </r>
       <r>   -4.6820    1.0000 </r>
       <r>   -4.6228    1.0000 </r>
       <r>   -3.3798    1.0000 </r>
       <r>   -3.2729    1.0000 </r>
       <r>   -3.2729    1.0000 </r>
       <r>   -1.0489    1.0000 </r>
       <r>   -0.7110    1.0000 </r>
       <r>   -0.7110    1.0000 </r>
       <r>   -0.1910    1.0000 </r>
       <r>   -0.1910    1.0000 </r>
       <r>   -0.0447    1.0000 </r>
       <r>   -0.0447    1.0000 </r>
       <r>    0.0668    1.0000 </r>
       <r>    0.0901    1.0000 </r>
       <r>    0.2050    1.0000 </r>
       <r>    0.2050    1.0000 </r>
       <r>    0.4503    1.0000 </r>
       <r>    0.4695    1.0000 </r>
       <r>    0.4695    1.0000 </r>
       <r>    0.5252    1.0000 </r>
       <r>    0.5252    1.0000 </r>
       <r>    0.9596    1.0000 </r>
       <r>    1.3999    1.0000 </r>
       <r>    1.3999    1.0000 </r>
       <r>    1.4404    1.0000 </r>
       <r>    4.4506    0.0000 </r>
       <r>    5.2170    0.0000 </r>
       <r>    5.2170    0.0000 </r>
       <r>    6.1630    0.0000 </r>
       <r>    6.9572    0.0000 </r>
       <r>    6.9572    0.0000 </r>
       <r>   11.1635    0.0000 </r>
       <r>   11.5334    0.0000 </r>
      </set>
     </set>
    </set>
   </array>
  </eigenvalues>
  <separator name="orbital magnetization" >
   <v name="MAGDIPOLOUT">      0.00000000      0.00000000      0.00000000</v>
  </separator>
  <dos>
   <i name="efermi">      2.38196444 </i>
   <total>
    <array>
     <dimension dim="1">gridpoints</dimension>
     <dimension dim="2">spin</dimension>
     <field>energy</field>
     <field>total</field>
     <field>integrated</field>
     <set>
      <set comment="spin 1">
       <r>   -20.0000     0.0000     0.0000 </r>
       <r>   -19.9833     0.0000     0.0000 </r>
       <r>   -19.9667     0.0000     0.0000 </r>
       <r>   -19.9500     0.0000     0.0000 </r>
       <r>   -19.9333     0.0000     0.0000 </r>
       <r>   -19.9167     0.0000     0.0000 </r>
       <r>   -19.9000     0.0000     0.0000 </r>
       <r>   -19.8833     0.0000     0.0000 </r>
       <r>   -19.8667     0.0000     0.0000 </r>
       <r>   -19.8500     0.0000     0.0000 </r>
       <r>   -19.8333     0.0000     0.0000 </r>
       <r>   -19.8167     0.0000     0.0000 </r>
       <r>   -19.8000     0.0000     0.0000 </r>
       <r>   -19.7833     0.0000     0.0000 </r>
       <r>   -19.7667     0.0000     0.0000 </r>
       <r>   -19.7500     0.0000     0.0000 </r>
       <r>   -19.7333     0.0000     0.0000 </r>
       <r>   -19.7167     0.0000     0.0000 </r>
       <r>   -19.7000     0.0000     0.0000 </r>
       <r>   -19.6833     0.0000     0.0000 </r>
       <r>   -19.6667     0.0000     0.0000 </r>
       <r>   -19.6500     0.0000     0.0000 </r>
       <r>   -19.6333     0.0000     0.0000 </r>
       <r>   -19.6167     0.0000     0.0000 </r>
       <r>   -19.6000     0.0000     0.0000 </r>
       <r>   -19.5833     0.0000     0.0000 </r>
       <r>   -19.5667     0.0000     0.0000 </r>
       <r>   -19.5500     0.0000     0.0000 </r>
       <r>   -19.5333     0.0000     0.0000 </r>
       <r>   -19.5167     0.0000     0.0000 </r>
       <r>   -19.5000     0.0000     0.0000 </r>
       <r>   -19.4833     0.0000     0.0000 </r>
       <r>   -19.4667     0.0000     0.0000 </r>
       <r>   -19.4500     0.0000     0.0000 </r>
       <r>   -19.4333     0.0000     0.0000 </r>
       <r>   -19.4167     0.0000     0.0000 </r>
       <r>   -19.4000     0.0000     0.0000 </r>
       <r>   -19.3833     0.0000     0.0000 </r>
       <r>   -19.3667     0.0000     0.0000 </r>
       <r>   -19.3500     0.0000     0.0000 </r>
       <r>   -19.3333     0.0000     0.0000 </r>
       <r>   -19.3167     0.0000     0.0000 </r>
       <r>   -19.3000     0.0000     0.0000 </r>
       <r>   -19.2833     0.0000     0.0000 </r>
       <r>   -19.2667     0.0000     0.0000 </r>
       <r>   -19.2500     0.0000     0.0000 </r>
       <r>   -19.2333     0.0000     0.0000 </r>
       <r>   -19.2167     0.0000     0.0000 </r>
       <r>   -19.2000     0.0000     0.0000 </r>
       <r>   -19.1833     0.0000     0.0000 </r>
       <r>   -19.1667     0.0000     0.0000 </r>
       <r>   -19.1500     0.0000     0.0000 </r>
       <r>   -19.1333     0.0000     0.0000 </r>
       <r>   -19.1167     0.0000     0.0000 </r>
       <r>   -19.1000     0.0000     0.0000 </r>
       <r>   -19.0833     0.0000     0.0000 </r>
       <r>   -19.0667     0.0000     0.0000 </r>
       <r>   -19.0500     0.0000     0.0000 </r>
       <r>   -19.0333     0.0000     0.0000 </r>
       <r>   -19.0167     0.0000     0.0000 </r>
       <r>   -19.0000     0.0000     0.0000 </r>
       <r>   -18.9833     0.0000     0.0000 </r>
       <r>   -18.9667     0.0000     0.0000 </r>
       <r>   -18.9500     0.0000     0.0000 </r>
       <r>   -18.9333     0.0000     0.0000 </r>
       <r>   -18.9167     0.0000     0.0000 </r>
       <r>   -18.9000     0.0000     0.0000 </r>
       <r>   -18.8833     0.0000     0.0000 </r>
       <r>   -18.8667     0.0000     0.0000 </r>
       <r>   -18.8500     0.0000     0.0000 </r>
       <r>   -18.8333     0.0000     0.0000 </r>
       <r>   -18.8167     0.0000     0.0000 </r>
       <r>   -18.8000     0.0000     0.0000 </r>
       <r>   -18.7833     0.0000     0.0000 </r>
       <r>   -18.7667     0.0000     0.0000 </r>
       <r>   -18.7500     0.0000     0.0000 </r>
       <r>   -18.7333     0.0000     0.0000 </r>
       <r>   -18.7167     0.0000     0.0000 </r>
       <r>   -18.7000     0.0000     0.0000 </r>
       <r>   -18.6833     0.0000     0.0000 </r>
       <r>   -18.6667     0.0000     0.0000 </r>
       <r>   -18.6500     0.0000     0.0000 </r>
       <r>   -18.6333     0.0000     0.0000 </r>
       <r>   -18.6167     0.0000     0.0000 </r>
       <r>   -18.6000     0.0000     0.0000 </r>
       <r>   -18.5833     0.0000     0.0000 </r>
       <r>   -18.5667     0.0000     0.0000 </r>
       <r>   -18.5500     0.0000     0.0000 </r>
       <r>   -18.5333     0.0000     0.0000 </r>
       <r>   -18.5167     0.0000     0.0000 </r>
       <r>   -18.5000     0.0000     0.0000 </r>
       <r>   -18.4833     0.0000     0.0000 </r>
       <r>   -18.4667     0.0000     0.0000 </r>
       <r>   -18.4500     0.0000     0.0000 </r>
       <r>   -18.4333     0.0000     0.0000 </r>
       <r>   -18.4167     0.0000     0.0000 </r>
       <r>   -18.4000     0.0000     0.0000 </r>
       <r>   -18.3833     0.0000     0.0000 </r>
       <r>   -18.3667     0.0000     0.0000 </r>
       <r>   -18.3500     0.0000     0.0000 </r>
       <r>   -18.3333     0.0000     0.0000 </r>
       <r>   -18.3167     0.0000     0.0000 </r>
       <r>   -18.3000     0.0000     0.0000 </r>
       <r>   -18.2833     0.0000     0.0000 </r>
       <r>   -18.2667     0.0000     0.0000 </r>
       <r>   -18.2500     0.0000     0.0000 </r>
       <r>   -18.2333     0.0000     0.0000 </r>
       <r>   -18.2167     0.0000     0.0000 </r>
       <r>   -18.2000     0.0000     0.0000 </r>
       <r>   -18.1833     0.0000     0.0000 </r>
       <r>   -18.1667     0.0000     0.0000 </r>
       <r>   -18.1500     0.0000     0.0000 </r>
       <r>   -18.1333     0.0000     0.0000 </r>
       <r>   -18.1167     0.0000     0.0000 </r>
       <r>   -18.1000     0.0000     0.0000 </r>
       <r>   -18.0833     0.0000     0.0000 </r>
       <r>   -18.0667     0.0000     0.0000 </r>
       <r>   -18.0500     0.0000     0.0000 </r>
       <r>   -18.0333     0.0000     0.0000 </r>
       <r>   -18.0167     0.0001     0.0000 </r>
       <r>   -18.0000     0.0002     0.0000 </r>
       <r>   -17.9833     0.0004     0.0000 </r>
       <r>   -17.9667     0.0010     0.0000 </r>
       <r>   -17.9500     0.0023     0.0001 </r>
       <r>   -17.9333     0.0047     0.0001 </r>
       <r>   -17.9167     0.0093     0.0003 </r>
       <r>   -17.9000     0.0173     0.0006 </r>
       <r>   -17.8833     0.0305     0.0011 </r>
       <r>   -17.8667     0.0509     0.0019 </r>
       <r>   -17.8500     0.0803     0.0033 </r>
       <r>   -17.8333     0.1202     0.0053 </r>
       <r>   -17.8167     0.1706     0.0081 </r>
       <r>   -17.8000     0.2301     0.0120 </r>
       <r>   -17.7833     0.2960     0.0169 </r>
       <r>   -17.7667     0.3655     0.0230 </r>
       <r>   -17.7500     0.4375     0.0303 </r>
       <r>   -17.7333     0.5151     0.0389 </r>
       <r>   -17.7167     0.6091     0.0490 </r>
       <r>   -17.7000     0.7387     0.0613 </r>
       <r>   -17.6833     0.9321     0.0769 </r>
       <r>   -17.6667     1.2231     0.0973 </r>
       <r>   -17.6500     1.6461     0.1247 </r>
       <r>   -17.6333     2.2284     0.1618 </r>
       <r>   -17.6167     2.9824     0.2115 </r>
       <r>   -17.6000     3.8988     0.2765 </r>
       <r>   -17.5833     4.9421     0.3589 </r>
       <r>   -17.5667     6.0505     0.4597 </r>
       <r>   -17.5500     7.1408     0.5787 </r>
       <r>   -17.5333     8.1171     0.7140 </r>
       <r>   -17.5167     8.8841     0.8621 </r>
       <r>   -17.5000     9.3623     1.0181 </r>
       <r>   -17.4833     9.5034     1.1765 </r>
       <r>   -17.4667     9.3034     1.3316 </r>
       <r>   -17.4500     8.8090     1.4784 </r>
       <r>   -17.4333     8.1142     1.6136 </r>
       <r>   -17.4167     7.3481     1.7361 </r>
       <r>   -17.4000     6.6524     1.8470 </r>
       <r>   -17.3833     6.1552     1.9496 </r>
       <r>   -17.3667     5.9464     2.0487 </r>
       <r>   -17.3500     6.0612     2.1497 </r>
       <r>   -17.3333     6.4742     2.2576 </r>
       <r>   -17.3167     7.1067     2.3760 </r>
       <r>   -17.3000     7.8433     2.5068 </r>
       <r>   -17.2833     8.5528     2.6493 </r>
       <r>   -17.2667     9.1103     2.8011 </r>
       <r>   -17.2500     9.4148     2.9581 </r>
       <r>   -17.2333     9.4021     3.1148 </r>
       <r>   -17.2167     9.0513     3.2656 </r>
       <r>   -17.2000     8.3865     3.4054 </r>
       <r>   -17.1833     7.4706     3.5299 </r>
       <r>   -17.1667     6.3947     3.6365 </r>
       <r>   -17.1500     5.2619     3.7242 </r>
       <r>   -17.1333     4.1701     3.7937 </r>
       <r>   -17.1167     3.1959     3.8469 </r>
       <r>   -17.1000     2.3857     3.8867 </r>
       <r>   -17.0833     1.7534     3.9159 </r>
       <r>   -17.0667     1.2862     3.9374 </r>
       <r>   -17.0500     0.9542     3.9533 </r>
       <r>   -17.0333     0.7217     3.9653 </r>
       <r>   -17.0167     0.5555     3.9745 </r>
       <r>   -17.0000     0.4307     3.9817 </r>
       <r>   -16.9833     0.3314     3.9873 </r>
       <r>   -16.9667     0.2495     3.9914 </r>
       <r>   -16.9500     0.1815     3.9944 </r>
       <r>   -16.9333     0.1267     3.9965 </r>
       <r>   -16.9167     0.0843     3.9980 </r>
       <r>   -16.9000     0.0534     3.9988 </r>
       <r>   -16.8833     0.0321     3.9994 </r>
       <r>   -16.8667     0.0183     3.9997 </r>
       <r>   -16.8500     0.0098     3.9998 </r>
       <r>   -16.8333     0.0050     3.9999 </r>
       <r>   -16.8167     0.0024     4.0000 </r>
       <r>   -16.8000     0.0011     4.0000 </r>
       <r>   -16.7833     0.0005     4.0000 </r>
       <r>   -16.7667     0.0002     4.0000 </r>
       <r>   -16.7500     0.0001     4.0000 </r>
       <r>   -16.7333     0.0000     4.0000 </r>
       <r>   -16.7167     0.0000     4.0000 </r>
       <r>   -16.7000     0.0000     4.0000 </r>
       <r>   -16.6833     0.0000     4.0000 </r>
       <r>   -16.6667     0.0000     4.0000 </r>
       <r>   -16.6500     0.0000     4.0000 </r>
       <r>   -16.6333     0.0000     4.0000 </r>
       <r>   -16.6167     0.0000     4.0000 </r>
       <r>   -16.6000     0.0000     4.0000 </r>
       <r>   -16.5833     0.0000     4.0000 </r>
       <r>   -16.5667     0.0000     4.0000 </r>
       <r>   -16.5500     0.0000     4.0000 </r>
       <r>   -16.5333     0.0000     4.0000 </r>
       <r>   -16.5167     0.0000     4.0000 </r>
       <r>   -16.5000     0.0000     4.0000 </r>
       <r>   -16.4833     0.0000     4.0000 </r>
       <r>   -16.4667     0.0000     4.0000 </r>
       <r>   -16.4500     0.0000     4.0000 </r>
       <r>   -16.4333     0.0000     4.0000 </r>
       <r>   -16.4167     0.0000     4.0000 </r>
       <r>   -16.4000     0.0000     4.0000 </r>
       <r>   -16.3833     0.0000     4.0000 </r>
       <r>   -16.3667     0.0000     4.0000 </r>
       <r>   -16.3500     0.0000     4.0000 </r>
       <r>   -16.3333     0.0000     4.0000 </r>
       <r>   -16.3167     0.0000     4.0000 </r>
       <r>   -16.3000     0.0000     4.0000 </r>
       <r>   -16.2833     0.0000     4.0000 </r>
       <r>   -16.2667     0.0000     4.0000 </r>
       <r>   -16.2500     0.0000     4.0000 </r>
       <r>   -16.2333     0.0000     4.0000 </r>
       <r>   -16.2167     0.0000     4.0000 </r>
       <r>   -16.2000     0.0000     4.0000 </r>
       <r>   -16.1833     0.0000     4.0000 </r>
       <r>   -16.1667     0.0000     4.0000 </r>
       <r>   -16.1500     0.0000     4.0000 </r>
       <r>   -16.1333     0.0000     4.0000 </r>
       <r>   -16.1167     0.0000     4.0000 </r>
       <r>   -16.1000     0.0000     4.0000 </r>
       <r>   -16.0833     0.0000     4.0000 </r>
       <r>   -16.0667     0.0000     4.0000 </r>
       <r>   -16.0500     0.0000     4.0000 </r>
       <r>   -16.0333     0.0000     4.0000 </r>
       <r>   -16.0167     0.0000     4.0000 </r>
       <r>   -16.0000     0.0000     4.0000 </r>
       <r>   -15.9833     0.0000     4.0000 </r>
       <r>   -15.9667     0.0000     4.0000 </r>
       <r>   -15.9500     0.0000     4.0000 </r>
       <r>   -15.9333     0.0000     4.0000 </r>
       <r>   -15.9167     0.0000     4.0000 </r>
       <r>   -15.9000     0.0000     4.0000 </r>
       <r>   -15.8833     0.0000     4.0000 </r>
       <r>   -15.8667     0.0000     4.0000 </r>
       <r>   -15.8500     0.0000     4.0000 </r>
       <r>   -15.8333     0.0000     4.0000 </r>
       <r>   -15.8167     0.0000     4.0000 </r>
       <r>   -15.8000     0.0000     4.0000 </r>
       <r>   -15.7833     0.0000     4.0000 </r>
       <r>   -15.7667     0.0000     4.0000 </r>
       <r>   -15.7500     0.0000     4.0000 </r>
       <r>   -15.7333     0.0000     4.0000 </r>
       <r>   -15.7167     0.0000     4.0000 </r>
       <r>   -15.7000     0.0000     4.0000 </r>
       <r>   -15.6833     0.0000     4.0000 </r>
       <r>   -15.6667     0.0000     4.0000 </r>
       <r>   -15.6500     0.0000     4.0000 </r>
       <r>   -15.6333     0.0000     4.0000 </r>
       <r>   -15.6167     0.0000     4.0000 </r>
       <r>   -15.6000     0.0000     4.0000 </r>
       <r>   -15.5833     0.0000     4.0000 </r>
       <r>   -15.5667     0.0000     4.0000 </r>
       <r>   -15.5500     0.0000     4.0000 </r>
       <r>   -15.5333     0.0000     4.0000 </r>
       <r>   -15.5167     0.0000     4.0000 </r>
       <r>   -15.5000     0.0000     4.0000 </r>
       <r>   -15.4833     0.0000     4.0000 </r>
       <r>   -15.4667     0.0000     4.0000 </r>
       <r>   -15.4500     0.0000     4.0000 </r>
       <r>   -15.4333     0.0000     4.0000 </r>
       <r>   -15.4167     0.0000     4.0000 </r>
       <r>   -15.4000     0.0000     4.0000 </r>
       <r>   -15.3833     0.0000     4.0000 </r>
       <r>   -15.3667     0.0000     4.0000 </r>
       <r>   -15.3500     0.0000     4.0000 </r>
       <r>   -15.3333     0.0000     4.0000 </r>
       <r>   -15.3167     0.0000     4.0000 </r>
       <r>   -15.3000     0.0000     4.0000 </r>
       <r>   -15.2833     0.0000     4.0000 </r>
       <r>   -15.2667     0.0000     4.0000 </r>
       <r>   -15.2500     0.0000     4.0000 </r>
       <r>   -15.2333     0.0000     4.0000 </r>
       <r>   -15.2167     0.0000     4.0000 </r>
       <r>   -15.2000     0.0000     4.0000 </r>
       <r>   -15.1833     0.0000     4.0000 </r>
       <r>   -15.1667     0.0000     4.0000 </r>
       <r>   -15.1500     0.0000     4.0000 </r>
       <r>   -15.1333     0.0000     4.0000 </r>
       <r>   -15.1167     0.0000     4.0000 </r>
       <r>   -15.1000     0.0000     4.0000 </r>
       <r>   -15.0833     0.0000     4.0000 </r>
       <r>   -15.0667     0.0000     4.0000 </r>
       <r>   -15.0500     0.0000     4.0000 </r>
       <r>   -15.0333     0.0000     4.0000 </r>
       <r>   -15.0167     0.0000     4.0000 </r>
       <r>   -15.0000     0.0000     4.0000 </r>
       <r>   -14.9833     0.0000     4.0000 </r>
       <r>   -14.9667     0.0000     4.0000 </r>
       <r>   -14.9500     0.0000     4.0000 </r>
       <r>   -14.9333     0.0000     4.0000 </r>
       <r>   -14.9167     0.0000     4.0000 </r>
       <r>   -14.9000     0.0000     4.0000 </r>
       <r>   -14.8833     0.0000     4.0000 </r>
       <r>   -14.8667     0.0000     4.0000 </r>
       <r>   -14.8500     0.0000     4.0000 </r>
       <r>   -14.8333     0.0000     4.0000 </r>
       <r>   -14.8167     0.0000     4.0000 </r>
       <r>   -14.8000     0.0000     4.0000 </r>
       <r>   -14.7833     0.0000     4.0000 </r>
       <r>   -14.7667     0.0000     4.0000 </r>
       <r>   -14.7500     0.0000     4.0000 </r>
       <r>   -14.7333     0.0000     4.0000 </r>
       <r>   -14.7167     0.0000     4.0000 </r>
       <r>   -14.7000     0.0000     4.0000 </r>
       <r>   -14.6833     0.0000     4.0000 </r>
       <r>   -14.6667     0.0000     4.0000 </r>
       <r>   -14.6500     0.0000     4.0000 </r>
       <r>   -14.6333     0.0000     4.0000 </r>
       <r>   -14.6167     0.0000     4.0000 </r>
       <r>   -14.6000     0.0000     4.0000 </r>
       <r>   -14.5833     0.0000     4.0000 </r>
       <r>   -14.5667     0.0000     4.0000 </r>
       <r>   -14.5500     0.0000     4.0000 </r>
       <r>   -14.5333     0.0000     4.0000 </r>
       <r>   -14.5167     0.0000     4.0000 </r>
       <r>   -14.5000     0.0000     4.0000 </r>
       <r>   -14.4833     0.0000     4.0000 </r>
       <r>   -14.4667     0.0000     4.0000 </r>
       <r>   -14.4500     0.0000     4.0000 </r>
       <r>   -14.4333     0.0000     4.0000 </r>
       <r>   -14.4167     0.0000     4.0000 </r>
       <r>   -14.4000     0.0000     4.0000 </r>
       <r>   -14.3833     0.0000     4.0000 </r>
       <r>   -14.3667     0.0000     4.0000 </r>
       <r>   -14.3500     0.0000     4.0000 </r>
       <r>   -14.3333     0.0000     4.0000 </r>
       <r>   -14.3167     0.0000     4.0000 </r>
       <r>   -14.3000     0.0000     4.0000 </r>
       <r>   -14.2833     0.0000     4.0000 </r>
       <r>   -14.2667     0.0000     4.0000 </r>
       <r>   -14.2500     0.0000     4.0000 </r>
       <r>   -14.2333     0.0000     4.0000 </r>
       <r>   -14.2167     0.0000     4.0000 </r>
       <r>   -14.2000     0.0000     4.0000 </r>
       <r>   -14.1833     0.0000     4.0000 </r>
       <r>   -14.1667     0.0000     4.0000 </r>
       <r>   -14.1500     0.0000     4.0000 </r>
       <r>   -14.1333     0.0000     4.0000 </r>
       <r>   -14.1167     0.0000     4.0000 </r>
       <r>   -14.1000     0.0000     4.0000 </r>
       <r>   -14.0833     0.0000     4.0000 </r>
       <r>   -14.0667     0.0000     4.0000 </r>
       <r>   -14.0500     0.0000     4.0000 </r>
       <r>   -14.0333     0.0000     4.0000 </r>
       <r>   -14.0167     0.0000     4.0000 </r>
       <r>   -14.0000     0.0000     4.0000 </r>
       <r>   -13.9833     0.0000     4.0000 </r>
       <r>   -13.9667     0.0000     4.0000 </r>
       <r>   -13.9500     0.0000     4.0000 </r>
       <r>   -13.9333     0.0000     4.0000 </r>
       <r>   -13.9167     0.0000     4.0000 </r>
       <r>   -13.9000     0.0000     4.0000 </r>
       <r>   -13.8833     0.0000     4.0000 </r>
       <r>   -13.8667     0.0000     4.0000 </r>
       <r>   -13.8500     0.0000     4.0000 </r>
       <r>   -13.8333     0.0000     4.0000 </r>
       <r>   -13.8167     0.0000     4.0000 </r>
       <r>   -13.8000     0.0000     4.0000 </r>
       <r>   -13.7833     0.0000     4.0000 </r>
       <r>   -13.7667     0.0000     4.0000 </r>
       <r>   -13.7500     0.0000     4.0000 </r>
       <r>   -13.7333     0.0000     4.0000 </r>
       <r>   -13.7167     0.0000     4.0000 </r>
       <r>   -13.7000     0.0000     4.0000 </r>
       <r>   -13.6833     0.0000     4.0000 </r>
       <r>   -13.6667     0.0000     4.0000 </r>
       <r>   -13.6500     0.0000     4.0000 </r>
       <r>   -13.6333     0.0000     4.0000 </r>
       <r>   -13.6167     0.0000     4.0000 </r>
       <r>   -13.6000     0.0000     4.0000 </r>
       <r>   -13.5833     0.0000     4.0000 </r>
       <r>   -13.5667     0.0000     4.0000 </r>
       <r>   -13.5500     0.0000     4.0000 </r>
       <r>   -13.5333     0.0000     4.0000 </r>
       <r>   -13.5167     0.0000     4.0000 </r>
       <r>   -13.5000     0.0000     4.0000 </r>
       <r>   -13.4833     0.0000     4.0000 </r>
       <r>   -13.4667     0.0000     4.0000 </r>
       <r>   -13.4500     0.0000     4.0000 </r>
       <r>   -13.4333     0.0000     4.0000 </r>
       <r>   -13.4167     0.0000     4.0000 </r>
       <r>   -13.4000     0.0000     4.0000 </r>
       <r>   -13.3833     0.0000     4.0000 </r>
       <r>   -13.3667     0.0000     4.0000 </r>
       <r>   -13.3500     0.0000     4.0000 </r>
       <r>   -13.3333     0.0000     4.0000 </r>
       <r>   -13.3167     0.0000     4.0000 </r>
       <r>   -13.3000     0.0000     4.0000 </r>
       <r>   -13.2833     0.0000     4.0000 </r>
       <r>   -13.2667     0.0000     4.0000 </r>
       <r>   -13.2500     0.0000     4.0000 </r>
       <r>   -13.2333     0.0000     4.0000 </r>
       <r>   -13.2167     0.0000     4.0000 </r>
       <r>   -13.2000     0.0000     4.0000 </r>
       <r>   -13.1833     0.0000     4.0000 </r>
       <r>   -13.1667     0.0000     4.0000 </r>
       <r>   -13.1500     0.0000     4.0000 </r>
       <r>   -13.1333     0.0000     4.0000 </r>
       <r>   -13.1167     0.0000     4.0000 </r>
       <r>   -13.1000     0.0000     4.0000 </r>
       <r>   -13.0833     0.0000     4.0000 </r>
       <r>   -13.0667     0.0000     4.0000 </r>
       <r>   -13.0500     0.0000     4.0000 </r>
       <r>   -13.0333     0.0000     4.0000 </r>
       <r>   -13.0167     0.0000     4.0000 </r>
       <r>   -13.0000     0.0000     4.0000 </r>
       <r>   -12.9833     0.0000     4.0000 </r>
       <r>   -12.9667     0.0000     4.0000 </r>
       <r>   -12.9500     0.0000     4.0000 </r>
       <r>   -12.9333     0.0000     4.0000 </r>
       <r>   -12.9167     0.0000     4.0000 </r>
       <r>   -12.9000     0.0000     4.0000 </r>
       <r>   -12.8833     0.0000     4.0000 </r>
       <r>   -12.8667     0.0000     4.0000 </r>
       <r>   -12.8500     0.0000     4.0000 </r>
       <r>   -12.8333     0.0000     4.0000 </r>
       <r>   -12.8167     0.0000     4.0000 </r>
       <r>   -12.8000     0.0000     4.0000 </r>
       <r>   -12.7833     0.0000     4.0000 </r>
       <r>   -12.7667     0.0000     4.0000 </r>
       <r>   -12.7500     0.0000     4.0000 </r>
       <r>   -12.7333     0.0000     4.0000 </r>
       <r>   -12.7167     0.0000     4.0000 </r>
       <r>   -12.7000     0.0000     4.0000 </r>
       <r>   -12.6833     0.0000     4.0000 </r>
       <r>   -12.6667     0.0000     4.0000 </r>
       <r>   -12.6500     0.0000     4.0000 </r>
       <r>   -12.6333     0.0000     4.0000 </r>
       <r>   -12.6167     0.0000     4.0000 </r>
       <r>   -12.6000     0.0000     4.0000 </r>
       <r>   -12.5833     0.0000     4.0000 </r>
       <r>   -12.5667     0.0000     4.0000 </r>
       <r>   -12.5500     0.0000     4.0000 </r>
       <r>   -12.5333     0.0000     4.0000 </r>
       <r>   -12.5167     0.0000     4.0000 </r>
       <r>   -12.5000     0.0000     4.0000 </r>
       <r>   -12.4833     0.0000     4.0000 </r>
       <r>   -12.4667     0.0000     4.0000 </r>
       <r>   -12.4500     0.0000     4.0000 </r>
       <r>   -12.4333     0.0000     4.0000 </r>
       <r>   -12.4167     0.0000     4.0000 </r>
       <r>   -12.4000     0.0000     4.0000 </r>
       <r>   -12.3833     0.0000     4.0000 </r>
       <r>   -12.3667     0.0000     4.0000 </r>
       <r>   -12.3500     0.0000     4.0000 </r>
       <r>   -12.3333     0.0000     4.0000 </r>
       <r>   -12.3167     0.0000     4.0000 </r>
       <r>   -12.3000     0.0000     4.0000 </r>
       <r>   -12.2833     0.0000     4.0000 </r>
       <r>   -12.2667     0.0000     4.0000 </r>
       <r>   -12.2500     0.0000     4.0000 </r>
       <r>   -12.2333     0.0000     4.0000 </r>
       <r>   -12.2167     0.0000     4.0000 </r>
       <r>   -12.2000     0.0000     4.0000 </r>
       <r>   -12.1833     0.0000     4.0000 </r>
       <r>   -12.1667     0.0000     4.0000 </r>
       <r>   -12.1500     0.0000     4.0000 </r>
       <r>   -12.1333     0.0000     4.0000 </r>
       <r>   -12.1167     0.0000     4.0000 </r>
       <r>   -12.1000     0.0000     4.0000 </r>
       <r>   -12.0833     0.0000     4.0000 </r>
       <r>   -12.0667     0.0000     4.0000 </r>
       <r>   -12.0500     0.0000     4.0000 </r>
       <r>   -12.0333     0.0000     4.0000 </r>
       <r>   -12.0167     0.0000     4.0000 </r>
       <r>   -12.0000     0.0000     4.0000 </r>
       <r>   -11.9833     0.0000     4.0000 </r>
       <r>   -11.9667     0.0000     4.0000 </r>
       <r>   -11.9500     0.0000     4.0000 </r>
       <r>   -11.9333     0.0000     4.0000 </r>
       <r>   -11.9167     0.0000     4.0000 </r>
       <r>   -11.9000     0.0000     4.0000 </r>
       <r>   -11.8833     0.0000     4.0000 </r>
       <r>   -11.8667     0.0000     4.0000 </r>
       <r>   -11.8500     0.0000     4.0000 </r>
       <r>   -11.8333     0.0000     4.0000 </r>
       <r>   -11.8167     0.0000     4.0000 </r>
       <r>   -11.8000     0.0000     4.0000 </r>
       <r>   -11.7833     0.0000     4.0000 </r>
       <r>   -11.7667     0.0000     4.0000 </r>
       <r>   -11.7500     0.0000     4.0000 </r>
       <r>   -11.7333     0.0000     4.0000 </r>
       <r>   -11.7167     0.0000     4.0000 </r>
       <r>   -11.7000     0.0000     4.0000 </r>
       <r>   -11.6833     0.0000     4.0000 </r>
       <r>   -11.6667     0.0000     4.0000 </r>
       <r>   -11.6500     0.0000     4.0000 </r>
       <r>   -11.6333     0.0000     4.0000 </r>
       <r>   -11.6167     0.0000     4.0000 </r>
       <r>   -11.6000     0.0000     4.0000 </r>
       <r>   -11.5833     0.0000     4.0000 </r>
       <r>   -11.5667     0.0000     4.0000 </r>
       <r>   -11.5500     0.0000     4.0000 </r>
       <r>   -11.5333     0.0000     4.0000 </r>
       <r>   -11.5167     0.0000     4.0000 </r>
       <r>   -11.5000     0.0000     4.0000 </r>
       <r>   -11.4833     0.0000     4.0000 </r>
       <r>   -11.4667     0.0000     4.0000 </r>
       <r>   -11.4500     0.0000     4.0000 </r>
       <r>   -11.4333     0.0000     4.0000 </r>
       <r>   -11.4167     0.0000     4.0000 </r>
       <r>   -11.4000     0.0000     4.0000 </r>
       <r>   -11.3833     0.0000     4.0000 </r>
       <r>   -11.3667     0.0000     4.0000 </r>
       <r>   -11.3500     0.0000     4.0000 </r>
       <r>   -11.3333     0.0000     4.0000 </r>
       <r>   -11.3167     0.0000     4.0000 </r>
       <r>   -11.3000     0.0000     4.0000 </r>
       <r>   -11.2833     0.0000     4.0000 </r>
       <r>   -11.2667     0.0000     4.0000 </r>
       <r>   -11.2500     0.0000     4.0000 </r>
       <r>   -11.2333     0.0000     4.0000 </r>
       <r>   -11.2167     0.0000     4.0000 </r>
       <r>   -11.2000     0.0000     4.0000 </r>
       <r>   -11.1833     0.0000     4.0000 </r>
       <r>   -11.1667     0.0000     4.0000 </r>
       <r>   -11.1500     0.0000     4.0000 </r>
       <r>   -11.1333     0.0000     4.0000 </r>
       <r>   -11.1167     0.0000     4.0000 </r>
       <r>   -11.1000     0.0000     4.0000 </r>
       <r>   -11.0833     0.0000     4.0000 </r>
       <r>   -11.0667     0.0000     4.0000 </r>
       <r>   -11.0500     0.0000     4.0000 </r>
       <r>   -11.0333     0.0000     4.0000 </r>
       <r>   -11.0167     0.0000     4.0000 </r>
       <r>   -11.0000     0.0000     4.0000 </r>
       <r>   -10.9833     0.0000     4.0000 </r>
       <r>   -10.9667     0.0000     4.0000 </r>
       <r>   -10.9500     0.0000     4.0000 </r>
       <r>   -10.9333     0.0000     4.0000 </r>
       <r>   -10.9167     0.0000     4.0000 </r>
       <r>   -10.9000     0.0000     4.0000 </r>
       <r>   -10.8833     0.0000     4.0000 </r>
       <r>   -10.8667     0.0000     4.0000 </r>
       <r>   -10.8500     0.0000     4.0000 </r>
       <r>   -10.8333     0.0000     4.0000 </r>
       <r>   -10.8167     0.0000     4.0000 </r>
       <r>   -10.8000     0.0000     4.0000 </r>
       <r>   -10.7833     0.0000     4.0000 </r>
       <r>   -10.7667     0.0000     4.0000 </r>
       <r>   -10.7500     0.0000     4.0000 </r>
       <r>   -10.7333     0.0000     4.0000 </r>
       <r>   -10.7167     0.0000     4.0000 </r>
       <r>   -10.7000     0.0000     4.0000 </r>
       <r>   -10.6833     0.0000     4.0000 </r>
       <r>   -10.6667     0.0000     4.0000 </r>
       <r>   -10.6500     0.0000     4.0000 </r>
       <r>   -10.6333     0.0000     4.0000 </r>
       <r>   -10.6167     0.0000     4.0000 </r>
       <r>   -10.6000     0.0000     4.0000 </r>
       <r>   -10.5833     0.0000     4.0000 </r>
       <r>   -10.5667     0.0000     4.0000 </r>
       <r>   -10.5500     0.0000     4.0000 </r>
       <r>   -10.5333     0.0000     4.0000 </r>
       <r>   -10.5167     0.0000     4.0000 </r>
       <r>   -10.5000     0.0000     4.0000 </r>
       <r>   -10.4833     0.0000     4.0000 </r>
       <r>   -10.4667     0.0000     4.0000 </r>
       <r>   -10.4500     0.0000     4.0000 </r>
       <r>   -10.4333     0.0000     4.0000 </r>
       <r>   -10.4167     0.0000     4.0000 </r>
       <r>   -10.4000     0.0000     4.0000 </r>
       <r>   -10.3833     0.0000     4.0000 </r>
       <r>   -10.3667     0.0000     4.0000 </r>
       <r>   -10.3500     0.0000     4.0000 </r>
       <r>   -10.3333     0.0000     4.0000 </r>
       <r>   -10.3167     0.0000     4.0000 </r>
       <r>   -10.3000     0.0000     4.0000 </r>
       <r>   -10.2833     0.0000     4.0000 </r>
       <r>   -10.2667     0.0000     4.0000 </r>
       <r>   -10.2500     0.0000     4.0000 </r>
       <r>   -10.2333     0.0000     4.0000 </r>
       <r>   -10.2167     0.0000     4.0000 </r>
       <r>   -10.2000     0.0000     4.0000 </r>
       <r>   -10.1833     0.0000     4.0000 </r>
       <r>   -10.1667     0.0000     4.0000 </r>
       <r>   -10.1500     0.0000     4.0000 </r>
       <r>   -10.1333     0.0000     4.0000 </r>
       <r>   -10.1167     0.0000     4.0000 </r>
       <r>   -10.1000     0.0000     4.0000 </r>
       <r>   -10.0833     0.0000     4.0000 </r>
       <r>   -10.0667     0.0000     4.0000 </r>
       <r>   -10.0500     0.0000     4.0000 </r>
       <r>   -10.0333     0.0000     4.0000 </r>
       <r>   -10.0167     0.0000     4.0000 </r>
       <r>   -10.0000     0.0000     4.0000 </r>
       <r>    -9.9833     0.0000     4.0000 </r>
       <r>    -9.9667     0.0000     4.0000 </r>
       <r>    -9.9500     0.0000     4.0000 </r>
       <r>    -9.9333     0.0000     4.0000 </r>
       <r>    -9.9167     0.0000     4.0000 </r>
       <r>    -9.9000     0.0000     4.0000 </r>
       <r>    -9.8833     0.0000     4.0000 </r>
       <r>    -9.8667     0.0000     4.0000 </r>
       <r>    -9.8500     0.0000     4.0000 </r>
       <r>    -9.8333     0.0000     4.0000 </r>
       <r>    -9.8167     0.0000     4.0000 </r>
       <r>    -9.8000     0.0000     4.0000 </r>
       <r>    -9.7833     0.0000     4.0000 </r>
       <r>    -9.7667     0.0000     4.0000 </r>
       <r>    -9.7500     0.0000     4.0000 </r>
       <r>    -9.7333     0.0000     4.0000 </r>
       <r>    -9.7167     0.0000     4.0000 </r>
       <r>    -9.7000     0.0000     4.0000 </r>
       <r>    -9.6833     0.0000     4.0000 </r>
       <r>    -9.6667     0.0000     4.0000 </r>
       <r>    -9.6500     0.0000     4.0000 </r>
       <r>    -9.6333     0.0000     4.0000 </r>
       <r>    -9.6167     0.0000     4.0000 </r>
       <r>    -9.6000     0.0000     4.0000 </r>
       <r>    -9.5833     0.0000     4.0000 </r>
       <r>    -9.5667     0.0000     4.0000 </r>
       <r>    -9.5500     0.0000     4.0000 </r>
       <r>    -9.5333     0.0000     4.0000 </r>
       <r>    -9.5167     0.0000     4.0000 </r>
       <r>    -9.5000     0.0000     4.0000 </r>
       <r>    -9.4833     0.0000     4.0000 </r>
       <r>    -9.4667     0.0000     4.0000 </r>
       <r>    -9.4500     0.0000     4.0000 </r>
       <r>    -9.4333     0.0000     4.0000 </r>
       <r>    -9.4167     0.0000     4.0000 </r>
       <r>    -9.4000     0.0000     4.0000 </r>
       <r>    -9.3833     0.0000     4.0000 </r>
       <r>    -9.3667     0.0000     4.0000 </r>
       <r>    -9.3500     0.0000     4.0000 </r>
       <r>    -9.3333     0.0000     4.0000 </r>
       <r>    -9.3167     0.0000     4.0000 </r>
       <r>    -9.3000     0.0000     4.0000 </r>
       <r>    -9.2833     0.0000     4.0000 </r>
       <r>    -9.2667     0.0000     4.0000 </r>
       <r>    -9.2500     0.0000     4.0000 </r>
       <r>    -9.2333     0.0000     4.0000 </r>
       <r>    -9.2167     0.0000     4.0000 </r>
       <r>    -9.2000     0.0000     4.0000 </r>
       <r>    -9.1833     0.0000     4.0000 </r>
       <r>    -9.1667     0.0000     4.0000 </r>
       <r>    -9.1500     0.0000     4.0000 </r>
       <r>    -9.1333     0.0000     4.0000 </r>
       <r>    -9.1167     0.0000     4.0000 </r>
       <r>    -9.1000     0.0000     4.0000 </r>
       <r>    -9.0833     0.0000     4.0000 </r>
       <r>    -9.0667     0.0000     4.0000 </r>
       <r>    -9.0500     0.0000     4.0000 </r>
       <r>    -9.0333     0.0000     4.0000 </r>
       <r>    -9.0167     0.0000     4.0000 </r>
       <r>    -9.0000     0.0000     4.0000 </r>
       <r>    -8.9833     0.0000     4.0000 </r>
       <r>    -8.9667     0.0000     4.0000 </r>
       <r>    -8.9500     0.0000     4.0000 </r>
       <r>    -8.9333     0.0000     4.0000 </r>
       <r>    -8.9167     0.0000     4.0000 </r>
       <r>    -8.9000     0.0000     4.0000 </r>
       <r>    -8.8833     0.0000     4.0000 </r>
       <r>    -8.8667     0.0000     4.0000 </r>
       <r>    -8.8500     0.0000     4.0000 </r>
       <r>    -8.8333     0.0000     4.0000 </r>
       <r>    -8.8167     0.0000     4.0000 </r>
       <r>    -8.8000     0.0000     4.0000 </r>
       <r>    -8.7833     0.0000     4.0000 </r>
       <r>    -8.7667     0.0000     4.0000 </r>
       <r>    -8.7500     0.0000     4.0000 </r>
       <r>    -8.7333     0.0000     4.0000 </r>
       <r>    -8.7167     0.0000     4.0000 </r>
       <r>    -8.7000     0.0000     4.0000 </r>
       <r>    -8.6833     0.0000     4.0000 </r>
       <r>    -8.6667     0.0000     4.0000 </r>
       <r>    -8.6500     0.0000     4.0000 </r>
       <r>    -8.6333     0.0000     4.0000 </r>
       <r>    -8.6167     0.0000     4.0000 </r>
       <r>    -8.6000     0.0000     4.0000 </r>
       <r>    -8.5833     0.0000     4.0000 </r>
       <r>    -8.5667     0.0000     4.0000 </r>
       <r>    -8.5500     0.0000     4.0000 </r>
       <r>    -8.5333     0.0000     4.0000 </r>
       <r>    -8.5167     0.0000     4.0000 </r>
       <r>    -8.5000     0.0000     4.0000 </r>
       <r>    -8.4833     0.0000     4.0000 </r>
       <r>    -8.4667     0.0000     4.0000 </r>
       <r>    -8.4500     0.0000     4.0000 </r>
       <r>    -8.4333     0.0000     4.0000 </r>
       <r>    -8.4167     0.0000     4.0000 </r>
       <r>    -8.4000     0.0000     4.0000 </r>
       <r>    -8.3833     0.0000     4.0000 </r>
       <r>    -8.3667     0.0000     4.0000 </r>
       <r>    -8.3500     0.0000     4.0000 </r>
       <r>    -8.3333     0.0000     4.0000 </r>
       <r>    -8.3167     0.0000     4.0000 </r>
       <r>    -8.3000     0.0000     4.0000 </r>
       <r>    -8.2833     0.0000     4.0000 </r>
       <r>    -8.2667     0.0000     4.0000 </r>
       <r>    -8.2500     0.0000     4.0000 </r>
       <r>    -8.2333     0.0000     4.0000 </r>
       <r>    -8.2167     0.0000     4.0000 </r>
       <r>    -8.2000     0.0000     4.0000 </r>
       <r>    -8.1833     0.0000     4.0000 </r>
       <r>    -8.1667     0.0000     4.0000 </r>
       <r>    -8.1500     0.0000     4.0000 </r>
       <r>    -8.1333     0.0000     4.0000 </r>
       <r>    -8.1167     0.0000     4.0000 </r>
       <r>    -8.1000     0.0000     4.0000 </r>
       <r>    -8.0833     0.0000     4.0000 </r>
       <r>    -8.0667     0.0000     4.0000 </r>
       <r>    -8.0500     0.0000     4.0000 </r>
       <r>    -8.0333     0.0000     4.0000 </r>
       <r>    -8.0167     0.0000     4.0000 </r>
       <r>    -8.0000     0.0000     4.0000 </r>
       <r>    -7.9833     0.0000     4.0000 </r>
       <r>    -7.9667     0.0000     4.0000 </r>
       <r>    -7.9500     0.0000     4.0000 </r>
       <r>    -7.9333     0.0000     4.0000 </r>
       <r>    -7.9167     0.0000     4.0000 </r>
       <r>    -7.9000     0.0000     4.0000 </r>
       <r>    -7.8833     0.0000     4.0000 </r>
       <r>    -7.8667     0.0000     4.0000 </r>
       <r>    -7.8500     0.0000     4.0000 </r>
       <r>    -7.8333     0.0000     4.0000 </r>
       <r>    -7.8167     0.0000     4.0000 </r>
       <r>    -7.8000     0.0000     4.0000 </r>
       <r>    -7.7833     0.0000     4.0000 </r>
       <r>    -7.7667     0.0000     4.0000 </r>
       <r>    -7.7500     0.0000     4.0000 </r>
       <r>    -7.7333     0.0000     4.0000 </r>
       <r>    -7.7167     0.0000     4.0000 </r>
       <r>    -7.7000     0.0000     4.0000 </r>
       <r>    -7.6833     0.0000     4.0000 </r>
       <r>    -7.6667     0.0000     4.0000 </r>
       <r>    -7.6500     0.0000     4.0000 </r>
       <r>    -7.6333     0.0000     4.0000 </r>
       <r>    -7.6167     0.0000     4.0000 </r>
       <r>    -7.6000     0.0000     4.0000 </r>
       <r>    -7.5833     0.0000     4.0000 </r>
       <r>    -7.5667     0.0000     4.0000 </r>
       <r>    -7.5500     0.0000     4.0000 </r>
       <r>    -7.5333     0.0000     4.0000 </r>
       <r>    -7.5167     0.0000     4.0000 </r>
       <r>    -7.5000     0.0000     4.0000 </r>
       <r>    -7.4833     0.0000     4.0000 </r>
       <r>    -7.4667     0.0000     4.0000 </r>
       <r>    -7.4500     0.0000     4.0000 </r>
       <r>    -7.4333     0.0000     4.0000 </r>
       <r>    -7.4167     0.0000     4.0000 </r>
       <r>    -7.4000     0.0000     4.0000 </r>
       <r>    -7.3833     0.0000     4.0000 </r>
       <r>    -7.3667     0.0000     4.0000 </r>
       <r>    -7.3500     0.0000     4.0000 </r>
       <r>    -7.3333     0.0000     4.0000 </r>
       <r>    -7.3167     0.0000     4.0000 </r>
       <r>    -7.3000     0.0000     4.0000 </r>
       <r>    -7.2833     0.0000     4.0000 </r>
       <r>    -7.2667     0.0000     4.0000 </r>
       <r>    -7.2500     0.0000     4.0000 </r>
       <r>    -7.2333     0.0000     4.0000 </r>
       <r>    -7.2167     0.0000     4.0000 </r>
       <r>    -7.2000     0.0000     4.0000 </r>
       <r>    -7.1833     0.0000     4.0000 </r>
       <r>    -7.1667     0.0000     4.0000 </r>
       <r>    -7.1500     0.0000     4.0000 </r>
       <r>    -7.1333     0.0000     4.0000 </r>
       <r>    -7.1167     0.0000     4.0000 </r>
       <r>    -7.1000     0.0000     4.0000 </r>
       <r>    -7.0833     0.0000     4.0000 </r>
       <r>    -7.0667     0.0000     4.0000 </r>
       <r>    -7.0500     0.0000     4.0000 </r>
       <r>    -7.0333     0.0000     4.0000 </r>
       <r>    -7.0167     0.0000     4.0000 </r>
       <r>    -7.0000     0.0000     4.0000 </r>
       <r>    -6.9833     0.0000     4.0000 </r>
       <r>    -6.9667     0.0000     4.0000 </r>
       <r>    -6.9500     0.0000     4.0000 </r>
       <r>    -6.9333     0.0000     4.0000 </r>
       <r>    -6.9167     0.0000     4.0000 </r>
       <r>    -6.9000     0.0000     4.0000 </r>
       <r>    -6.8833     0.0000     4.0000 </r>
       <r>    -6.8667     0.0000     4.0000 </r>
       <r>    -6.8500     0.0000     4.0000 </r>
       <r>    -6.8333     0.0000     4.0000 </r>
       <r>    -6.8167     0.0000     4.0000 </r>
       <r>    -6.8000     0.0000     4.0000 </r>
       <r>    -6.7833     0.0000     4.0000 </r>
       <r>    -6.7667     0.0000     4.0000 </r>
       <r>    -6.7500     0.0000     4.0000 </r>
       <r>    -6.7333     0.0000     4.0000 </r>
       <r>    -6.7167     0.0000     4.0000 </r>
       <r>    -6.7000     0.0000     4.0000 </r>
       <r>    -6.6833     0.0000     4.0000 </r>
       <r>    -6.6667     0.0000     4.0000 </r>
       <r>    -6.6500     0.0000     4.0000 </r>
       <r>    -6.6333     0.0000     4.0000 </r>
       <r>    -6.6167     0.0000     4.0000 </r>
       <r>    -6.6000     0.0000     4.0000 </r>
       <r>    -6.5833     0.0000     4.0000 </r>
       <r>    -6.5667     0.0000     4.0000 </r>
       <r>    -6.5500     0.0000     4.0000 </r>
       <r>    -6.5333     0.0000     4.0000 </r>
       <r>    -6.5167     0.0000     4.0000 </r>
       <r>    -6.5000     0.0000     4.0000 </r>
       <r>    -6.4833     0.0000     4.0000 </r>
       <r>    -6.4667     0.0000     4.0000 </r>
       <r>    -6.4500     0.0000     4.0000 </r>
       <r>    -6.4333     0.0000     4.0000 </r>
       <r>    -6.4167     0.0000     4.0000 </r>
       <r>    -6.4000     0.0000     4.0000 </r>
       <r>    -6.3833     0.0000     4.0000 </r>
       <r>    -6.3667     0.0000     4.0000 </r>
       <r>    -6.3500     0.0000     4.0000 </r>
       <r>    -6.3333     0.0000     4.0000 </r>
       <r>    -6.3167     0.0000     4.0000 </r>
       <r>    -6.3000     0.0000     4.0000 </r>
       <r>    -6.2833     0.0000     4.0000 </r>
       <r>    -6.2667     0.0000     4.0000 </r>
       <r>    -6.2500     0.0000     4.0000 </r>
       <r>    -6.2333     0.0000     4.0000 </r>
       <r>    -6.2167     0.0000     4.0000 </r>
       <r>    -6.2000     0.0000     4.0000 </r>
       <r>    -6.1833     0.0000     4.0000 </r>
       <r>    -6.1667     0.0000     4.0000 </r>
       <r>    -6.1500     0.0000     4.0000 </r>
       <r>    -6.1333     0.0000     4.0000 </r>
       <r>    -6.1167     0.0000     4.0000 </r>
       <r>    -6.1000     0.0000     4.0000 </r>
       <r>    -6.0833     0.0000     4.0000 </r>
       <r>    -6.0667     0.0000     4.0000 </r>
       <r>    -6.0500     0.0000     4.0000 </r>
       <r>    -6.0333     0.0000     4.0000 </r>
       <r>    -6.0167     0.0000     4.0000 </r>
       <r>    -6.0000     0.0000     4.0000 </r>
       <r>    -5.9833     0.0000     4.0000 </r>
       <r>    -5.9667     0.0000     4.0000 </r>
       <r>    -5.9500     0.0000     4.0000 </r>
       <r>    -5.9333     0.0000     4.0000 </r>
       <r>    -5.9167     0.0000     4.0000 </r>
       <r>    -5.9000     0.0000     4.0000 </r>
       <r>    -5.8833     0.0000     4.0000 </r>
       <r>    -5.8667     0.0000     4.0000 </r>
       <r>    -5.8500     0.0000     4.0000 </r>
       <r>    -5.8333     0.0000     4.0000 </r>
       <r>    -5.8167     0.0000     4.0000 </r>
       <r>    -5.8000     0.0000     4.0000 </r>
       <r>    -5.7833     0.0000     4.0000 </r>
       <r>    -5.7667     0.0000     4.0000 </r>
       <r>    -5.7500     0.0000     4.0000 </r>
       <r>    -5.7333     0.0000     4.0000 </r>
       <r>    -5.7167     0.0000     4.0000 </r>
       <r>    -5.7000     0.0000     4.0000 </r>
       <r>    -5.6833     0.0000     4.0000 </r>
       <r>    -5.6667     0.0000     4.0000 </r>
       <r>    -5.6500     0.0000     4.0000 </r>
       <r>    -5.6333     0.0000     4.0000 </r>
       <r>    -5.6167     0.0000     4.0000 </r>
       <r>    -5.6000     0.0000     4.0000 </r>
       <r>    -5.5833     0.0000     4.0000 </r>
       <r>    -5.5667     0.0000     4.0000 </r>
       <r>    -5.5500     0.0000     4.0000 </r>
       <r>    -5.5333     0.0000     4.0000 </r>
       <r>    -5.5167     0.0000     4.0000 </r>
       <r>    -5.5000     0.0000     4.0000 </r>
       <r>    -5.4833     0.0000     4.0000 </r>
       <r>    -5.4667     0.0000     4.0000 </r>
       <r>    -5.4500     0.0000     4.0000 </r>
       <r>    -5.4333     0.0000     4.0000 </r>
       <r>    -5.4167     0.0000     4.0000 </r>
       <r>    -5.4000     0.0000     4.0000 </r>
       <r>    -5.3833     0.0000     4.0000 </r>
       <r>    -5.3667     0.0000     4.0000 </r>
       <r>    -5.3500     0.0000     4.0000 </r>
       <r>    -5.3333     0.0000     4.0000 </r>
       <r>    -5.3167     0.0000     4.0000 </r>
       <r>    -5.3000     0.0000     4.0000 </r>
       <r>    -5.2833     0.0000     4.0000 </r>
       <r>    -5.2667     0.0000     4.0000 </r>
       <r>    -5.2500     0.0000     4.0000 </r>
       <r>    -5.2333     0.0000     4.0000 </r>
       <r>    -5.2167     0.0001     4.0000 </r>
       <r>    -5.2000     0.0002     4.0000 </r>
       <r>    -5.1833     0.0006     4.0000 </r>
       <r>    -5.1667     0.0016     4.0000 </r>
       <r>    -5.1500     0.0041     4.0001 </r>
       <r>    -5.1333     0.0096     4.0003 </r>
       <r>    -5.1167     0.0215     4.0006 </r>
       <r>    -5.1000     0.0455     4.0014 </r>
       <r>    -5.0833     0.0911     4.0029 </r>
       <r>    -5.0667     0.1727     4.0058 </r>
       <r>    -5.0500     0.3100     4.0110 </r>
       <r>    -5.0333     0.5266     4.0197 </r>
       <r>    -5.0167     0.8470     4.0338 </r>
       <r>    -5.0000     1.2905     4.0554 </r>
       <r>    -4.9833     1.8630     4.0864 </r>
       <r>    -4.9667     2.5492     4.1289 </r>
       <r>    -4.9500     3.3088     4.1840 </r>
       <r>    -4.9333     4.0772     4.2520 </r>
       <r>    -4.9167     4.7764     4.3316 </r>
       <r>    -4.9000     5.3300     4.4204 </r>
       <r>    -4.8833     5.6834     4.5152 </r>
       <r>    -4.8667     5.8193     4.6121 </r>
       <r>    -4.8500     5.7661     4.7082 </r>
       <r>    -4.8333     5.5963     4.8015 </r>
       <r>    -4.8167     5.4137     4.8917 </r>
       <r>    -4.8000     5.3348     4.9807 </r>
       <r>    -4.7833     5.4667     5.0718 </r>
       <r>    -4.7667     5.8876     5.1699 </r>
       <r>    -4.7500     6.6306     5.2804 </r>
       <r>    -4.7333     7.6759     5.4083 </r>
       <r>    -4.7167     8.9512     5.5575 </r>
       <r>    -4.7000    10.3408     5.7299 </r>
       <r>    -4.6833    11.7030     5.9249 </r>
       <r>    -4.6667    12.8917     6.1398 </r>
       <r>    -4.6500    13.7795     6.3694 </r>
       <r>    -4.6333    14.2773     6.6074 </r>
       <r>    -4.6167    14.3476     6.8465 </r>
       <r>    -4.6000    14.0092     7.0800 </r>
       <r>    -4.5833    13.3322     7.3022 </r>
       <r>    -4.5667    12.4244     7.5093 </r>
       <r>    -4.5500    11.4107     7.6995 </r>
       <r>    -4.5333    10.4088     7.8729 </r>
       <r>    -4.5167     9.5067     8.0314 </r>
       <r>    -4.5000     8.7474     8.1772 </r>
       <r>    -4.4833     8.1245     8.3126 </r>
       <r>    -4.4667     7.5908     8.4391 </r>
       <r>    -4.4500     7.0771     8.5571 </r>
       <r>    -4.4333     6.5166     8.6657 </r>
       <r>    -4.4167     5.8653     8.7634 </r>
       <r>    -4.4000     5.1147     8.8487 </r>
       <r>    -4.3833     4.2915     8.9202 </r>
       <r>    -4.3667     3.4471     8.9776 </r>
       <r>    -4.3500     2.6413     9.0217 </r>
       <r>    -4.3333     1.9257     9.0538 </r>
       <r>    -4.3167     1.3337     9.0760 </r>
       <r>    -4.3000     0.8764     9.0906 </r>
       <r>    -4.2833     0.5462     9.0997 </r>
       <r>    -4.2667     0.3231     9.1051 </r>
       <r>    -4.2500     0.1826     9.1081 </r>
       <r>    -4.2333     0.1015     9.1098 </r>
       <r>    -4.2167     0.0621     9.1109 </r>
       <r>    -4.2000     0.0538     9.1118 </r>
       <r>    -4.1833     0.0743     9.1130 </r>
       <r>    -4.1667     0.1292     9.1151 </r>
       <r>    -4.1500     0.2319     9.1190 </r>
       <r>    -4.1333     0.4019     9.1257 </r>
       <r>    -4.1167     0.6623     9.1367 </r>
       <r>    -4.1000     1.0337     9.1540 </r>
       <r>    -4.0833     1.5272     9.1794 </r>
       <r>    -4.0667     2.1355     9.2150 </r>
       <r>    -4.0500     2.8267     9.2621 </r>
       <r>    -4.0333     3.5434     9.3212 </r>
       <r>    -4.0167     4.2091     9.3913 </r>
       <r>    -4.0000     4.7442     9.4704 </r>
       <r>    -3.9833     5.0853     9.5552 </r>
       <r>    -3.9667     5.2045     9.6419 </r>
       <r>    -3.9500     5.1211     9.7273 </r>
       <r>    -3.9333     4.8991     9.8089 </r>
       <r>    -3.9167     4.6326     9.8861 </r>
       <r>    -3.9000     4.4204     9.9598 </r>
       <r>    -3.8833     4.3386    10.0321 </r>
       <r>    -3.8667     4.4199    10.1058 </r>
       <r>    -3.8500     4.6453    10.1832 </r>
       <r>    -3.8333     4.9515    10.2657 </r>
       <r>    -3.8167     5.2516    10.3532 </r>
       <r>    -3.8000     5.4614    10.4443 </r>
       <r>    -3.7833     5.5240    10.5363 </r>
       <r>    -3.7667     5.4234    10.6267 </r>
       <r>    -3.7500     5.1836    10.7131 </r>
       <r>    -3.7333     4.8550    10.7940 </r>
       <r>    -3.7167     4.4936    10.8689 </r>
       <r>    -3.7000     4.1415    10.9379 </r>
       <r>    -3.6833     3.8163    11.0016 </r>
       <r>    -3.6667     3.5115    11.0601 </r>
       <r>    -3.6500     3.2071    11.1135 </r>
       <r>    -3.6333     2.8838    11.1616 </r>
       <r>    -3.6167     2.5353    11.2038 </r>
       <r>    -3.6000     2.1756    11.2401 </r>
       <r>    -3.5833     1.8382    11.2707 </r>
       <r>    -3.5667     1.5714    11.2969 </r>
       <r>    -3.5500     1.4309    11.3208 </r>
       <r>    -3.5333     1.4718    11.3453 </r>
       <r>    -3.5167     1.7418    11.3743 </r>
       <r>    -3.5000     2.2729    11.4122 </r>
       <r>    -3.4833     3.0724    11.4634 </r>
       <r>    -3.4667     4.1154    11.5320 </r>
       <r>    -3.4500     5.3405    11.6210 </r>
       <r>    -3.4333     6.6543    11.7319 </r>
       <r>    -3.4167     7.9454    11.8644 </r>
       <r>    -3.4000     9.1075    12.0161 </r>
       <r>    -3.3833    10.0632    12.1839 </r>
       <r>    -3.3667    10.7807    12.3635 </r>
       <r>    -3.3500    11.2752    12.5515 </r>
       <r>    -3.3333    11.5955    12.7447 </r>
       <r>    -3.3167    11.7982    12.9414 </r>
       <r>    -3.3000    11.9232    13.1401 </r>
       <r>    -3.2833    11.9769    13.3397 </r>
       <r>    -3.2667    11.9327    13.5386 </r>
       <r>    -3.2500    11.7437    13.7343 </r>
       <r>    -3.2333    11.3653    13.9237 </r>
       <r>    -3.2167    10.7762    14.1033 </r>
       <r>    -3.2000     9.9931    14.2699 </r>
       <r>    -3.1833     9.0740    14.4211 </r>
       <r>    -3.1667     8.1094    14.5563 </r>
       <r>    -3.1500     7.2041    14.6763 </r>
       <r>    -3.1333     6.4535    14.7839 </r>
       <r>    -3.1167     5.9207    14.8826 </r>
       <r>    -3.1000     5.6200    14.9762 </r>
       <r>    -3.0833     5.5120    15.0681 </r>
       <r>    -3.0667     5.5139    15.1600 </r>
       <r>    -3.0500     5.5208    15.2520 </r>
       <r>    -3.0333     5.4334    15.3426 </r>
       <r>    -3.0167     5.1833    15.4290 </r>
       <r>    -3.0000     4.7478    15.5081 </r>
       <r>    -2.9833     4.1507    15.5773 </r>
       <r>    -2.9667     3.4509    15.6348 </r>
       <r>    -2.9500     2.7228    15.6802 </r>
       <r>    -2.9333     2.0362    15.7141 </r>
       <r>    -2.9167     1.4422    15.7381 </r>
       <r>    -2.9000     0.9671    15.7543 </r>
       <r>    -2.8833     0.6138    15.7645 </r>
       <r>    -2.8667     0.3687    15.7706 </r>
       <r>    -2.8500     0.2096    15.7741 </r>
       <r>    -2.8333     0.1127    15.7760 </r>
       <r>    -2.8167     0.0574    15.7770 </r>
       <r>    -2.8000     0.0277    15.7774 </r>
       <r>    -2.7833     0.0127    15.7776 </r>
       <r>    -2.7667     0.0056    15.7777 </r>
       <r>    -2.7500     0.0028    15.7778 </r>
       <r>    -2.7333     0.0022    15.7778 </r>
       <r>    -2.7167     0.0034    15.7779 </r>
       <r>    -2.7000     0.0069    15.7780 </r>
       <r>    -2.6833     0.0141    15.7782 </r>
       <r>    -2.6667     0.0280    15.7787 </r>
       <r>    -2.6500     0.0527    15.7796 </r>
       <r>    -2.6333     0.0939    15.7811 </r>
       <r>    -2.6167     0.1589    15.7838 </r>
       <r>    -2.6000     0.2548    15.7880 </r>
       <r>    -2.5833     0.3875    15.7945 </r>
       <r>    -2.5667     0.5588    15.8038 </r>
       <r>    -2.5500     0.7640    15.8165 </r>
       <r>    -2.5333     0.9903    15.8330 </r>
       <r>    -2.5167     1.2169    15.8533 </r>
       <r>    -2.5000     1.4176    15.8769 </r>
       <r>    -2.4833     1.5653    15.9030 </r>
       <r>    -2.4667     1.6381    15.9303 </r>
       <r>    -2.4500     1.6248    15.9574 </r>
       <r>    -2.4333     1.5273    15.9829 </r>
       <r>    -2.4167     1.3604    16.0055 </r>
       <r>    -2.4000     1.1482    16.0247 </r>
       <r>    -2.3833     0.9182    16.0400 </r>
       <r>    -2.3667     0.6956    16.0516 </r>
       <r>    -2.3500     0.4992    16.0599 </r>
       <r>    -2.3333     0.3393    16.0655 </r>
       <r>    -2.3167     0.2185    16.0692 </r>
[...]
        <r>  0.0650  0.0004  0.0000  0.0004  0.0369  0.0159  0.0007  0.0459  0.0043 </r>
        <r>  0.0032  0.0007  0.0009  0.0000  0.0051  0.0023  0.0181  0.0168  0.0046 </r>
        <r>  0.0000  0.1292  0.0851  0.0065  0.0000  0.0000  0.0000  0.0000  0.0000 </r>
        <r>  0.0000  0.1292  0.0851  0.0065  0.0000  0.0000  0.0000  0.0000  0.0000 </r>
       </set>
       <set comment="band 5">
        <r>  0.0842  0.0010  0.0010  0.0010  0.0343  0.0343  0.0000  0.0343  0.0000 </r>
        <r>  0.0097  0.0000  0.0113  0.0000  0.0031  0.0045  0.0105  0.0045  0.0000 </r>
        <r>  0.0097  0.0113  0.0000  0.0000  0.0045  0.0045  0.0026  0.0031  0.0079 </r>
        <r>  0.0097  0.0000  0.0000  0.0113  0.0045  0.0031  0.0026  0.0045  0.0079 </r>
        <r>  0.0018  0.0725  0.0725  0.0725  0.0000  0.0000  0.0000  0.0000  0.0000 </r>
        <r>  0.0018  0.0725  0.0725  0.0725  0.0000  0.0000  0.0000  0.0000  0.0000 </r>
       </set>
       <set comment="band 6">
        <r>  0.0049  0.0230  0.0230  0.0230  0.0038  0.0038  0.0000  0.0038  0.0000 </r>
        <r>  0.0010  0.0000  0.0097  0.0000  0.0008  0.0164  0.0207  0.0164  0.0000 </r>
        <r>  0.0010  0.0097  0.0000  0.0000  0.0164  0.0164  0.0052  0.0008  0.0155 </r>
        <r>  0.0010  0.0000  0.0000  0.0097  0.0164  0.0008  0.0052  0.0164  0.0155 </r>
        <r>  0.0006  0.0855  0.0855  0.0855  0.0000  0.0000  0.0000  0.0000  0.0000 </r>
        <r>  0.0006  0.0855  0.0855  0.0855  0.0000  0.0000  0.0000  0.0000  0.0000 </r>
       </set>
       <set comment="band 7">
        <r>  0.0000  0.0030  0.0020  0.0023  0.0083  0.0093  0.0234  0.0122  0.0327 </r>
        <r>  0.0001  0.0133  0.0050  0.0181  0.0002  0.0012  0.0000  0.0016  0.0004 </r>
        <r>  0.0001  0.0073  0.0203  0.0185  0.0014  0.0016  0.0002  0.0003  0.0001 </r>
        <r>  0.0001  0.0134  0.0199  0.0056  0.0011  0.0002  0.0003  0.0017  0.0001 </r>
        <r>  0.0000  0.1067  0.0727  0.0819  0.0000  0.0000  0.0000  0.0000  0.0000 </r>
        <r>  0.0000  0.1067  0.0727  0.0819  0.0000  0.0000  0.0000  0.0000  0.0000 </r>
       </set>
       <set comment="band 8">
        <r>  0.0000  0.0019  0.0029  0.0026  0.0116  0.0105  0.0327  0.0077  0.0234 </r>
        <r>  0.0001  0.0212  0.0069  0.0165  0.0002  0.0017  0.0000  0.0012  0.0003 </r>
        <r>  0.0001  0.0046  0.0142  0.0160  0.0015  0.0013  0.0003  0.0002  0.0001 </r>
        <r>  0.0001  0.0211  0.0146  0.0063  0.0018  0.0002  0.0002  0.0011  0.0001 </r>
        <r>  0.0000  0.0675  0.1015  0.0923  0.0000  0.0000  0.0000  0.0000  0.0000 </r>
        <r>  0.0000  0.0675  0.1015  0.0923  0.0000  0.0000  0.0000  0.0000  0.0000 </r>
       </set>
       <set comment="band 9">
        <r>  0.0395  0.0000  0.0000  0.0000  0.1004  0.1004  0.0000  0.1004  0.0000 </r>
        <r>  0.0126  0.0011  0.0007  0.0011  0.1157  0.0004  0.0101  0.0004  0.0000 </r>
        <r>  0.0126  0.0007  0.0011  0.0011  0.0004  0.0004  0.0025  0.1157  0.0076 </r>
        <r>  0.0126  0.0011  0.0011  0.0007  0.0004  0.1157  0.0025  0.0004  0.0076 </r>
        <r>  0.0006  0.0020  0.0020  0.0020  0.0000  0.0000  0.0000  0.0000  0.0000 </r>
        <r>  0.0006  0.0020  0.0020  0.0020  0.0000  0.0000  0.0000  0.0000  0.0000 </r>
       </set>
       <set comment="band 10">
        <r>  0.0000  0.0002  0.0001  0.0004  0.0169  0.1223  0.0030  0.0502  0.0193 </r>
        <r>  0.0031  0.0004  0.0003  0.0013  0.0082  0.0268  0.0000  0.1362  0.0000 </r>
        <r>  0.0091  0.0008  0.0001  0.0014  0.1626  0.0026  0.0000  0.0243  0.0000 </r>
        <r>  0.0222  0.0007  0.0003  0.0019  0.1104  0.0591  0.0000  0.0598  0.0001 </r>
        <r>  0.0000  0.0008  0.0003  0.0018  0.0000  0.0000  0.0000  0.0000  0.0000 </r>
        <r>  0.0000  0.0008  0.0003  0.0018  0.0000  0.0000  0.0000  0.0000  0.0000 </r>
       </set>
       <set comment="band 11">
        <r>  0.0000  0.0003  0.0004  0.0000  0.1094  0.0040  0.0193  0.0760  0.0030 </r>
        <r>  0.0198  0.0010  0.0017  0.0001  0.0528  0.1393  0.0001  0.0299  0.0000 </r>
        <r>  0.0138  0.0012  0.0013  0.0000  0.0035  0.1635  0.0000  0.0367  0.0000 </r>
        <r>  0.0007  0.0007  0.0011  0.0001  0.0558  0.0019  0.0000  0.1064  0.0000 </r>
        <r>  0.0000  0.0011  0.0016  0.0001  0.0000  0.0000  0.0000  0.0000  0.0000 </r>
        <r>  0.0000  0.0011  0.0016  0.0001  0.0000  0.0000  0.0000  0.0000  0.0000 </r>
       </set>
       <set comment="band 12">
        <r>  0.0000  0.0014  0.0008  0.0010  0.0079  0.0106  0.0302  0.0150  0.0548 </r>
        <r>  0.0009  0.0007  0.0002  0.0008  0.0528  0.0275  0.0279  0.0444  0.0891 </r>
        <r>  0.0017  0.0003  0.0005  0.0004  0.0407  0.0510  0.0412  0.0996  0.0572 </r>
        <r>  0.0012  0.0005  0.0007  0.0002  0.0261  0.0706  0.0474  0.0533  0.0626 </r>
        <r>  0.0000  0.0007  0.0004  0.0005  0.0000  0.0000  0.0000  0.0000  0.0000 </r>
        <r>  0.0000  0.0007  0.0004  0.0005  0.0000  0.0000  0.0000  0.0000  0.0000 </r>
       </set>
       <set comment="band 13">
        <r>  0.0000  0.0007  0.0014  0.0011  0.0144  0.0118  0.0548  0.0074  0.0302 </r>
        <r>  0.0017  0.0005  0.0003  0.0004  0.0958  0.0535  0.0507  0.0367  0.0491 </r>
        <r>  0.0008  0.0001  0.0007  0.0008  0.0403  0.0300  0.0822  0.0490  0.0364 </r>
        <r>  0.0013  0.0007  0.0005  0.0002  0.0549  0.0781  0.0760  0.0277  0.0310 </r>
        <r>  0.0000  0.0003  0.0007  0.0005  0.0000  0.0000  0.0000  0.0000  0.0000 </r>
        <r>  0.0000  0.0003  0.0007  0.0005  0.0000  0.0000  0.0000  0.0000  0.0000 </r>
       </set>
       <set comment="band 14">
        <r>  0.0000  0.0000  0.0000  0.0000  0.0348  0.0740  0.0515  0.0081  0.0638 </r>
        <r>  0.0001  0.0000  0.0005  0.0000  0.0189  0.0076  0.1342  0.0460  0.0147 </r>
        <r>  0.0000  0.0001  0.0000  0.0000  0.0490  0.0262  0.0482  0.0044  0.0068 </r>
        <r>  0.0002  0.0000  0.0000  0.0010  0.0032  0.0401  0.0571  0.0188  0.2299 </r>
        <r>  0.0000  0.0001  0.0004  0.0008  0.0000  0.0000  0.0000  0.0000  0.0000 </r>
        <r>  0.0000  0.0001  0.0004  0.0008  0.0000  0.0000  0.0000  0.0000  0.0000 </r>
       </set>
       <set comment="band 15">
        <r>  0.0000  0.0000  0.0000  0.0000  0.0431  0.0039  0.0638  0.0698  0.0515 </r>
        <r>  0.0001  0.0000  0.0006  0.0000  0.0234  0.0426  0.1665  0.0043  0.0119 </r>
        <r>  0.0002  0.0009  0.0000  0.0000  0.0013  0.0241  0.0469  0.0379  0.2254 </r>
        <r>  0.0000  0.0000  0.0000  0.0001  0.0471  0.0021  0.0380  0.0315  0.0022 </r>
        <r>  0.0000  0.0007  0.0005  0.0000  0.0000  0.0000  0.0000  0.0000  0.0000 </r>
        <r>  0.0000  0.0007  0.0005  0.0000  0.0000  0.0000  0.0000  0.0000  0.0000 </r>
       </set>
       <set comment="band 16">
        <r>  0.0021  0.0004  0.0004  0.0004  0.0157  0.0157  0.0000  0.0157  0.0000 </r>
        <r>  0.0020  0.0006  0.0026  0.0006  0.0024  0.0436  0.1903  0.0436  0.0000 </r>
        <r>  0.0020  0.0026  0.0006  0.0006  0.0436  0.0436  0.0476  0.0024  0.1427 </r>
        <r>  0.0020  0.0006  0.0006  0.0026  0.0436  0.0024  0.0476  0.0436  0.1427 </r>
        <r>  0.0007  0.0008  0.0008  0.0008  0.0000  0.0000  0.0000  0.0000  0.0000 </r>
        <r>  0.0007  0.0008  0.0008  0.0008  0.0000  0.0000  0.0000  0.0000  0.0000 </r>
       </set>
       <set comment="band 17">
        <r>  0.0000  0.0000  0.0000  0.0000  0.0000  0.0000  0.0000  0.0000  0.0000 </r>
        <r>  0.0000  0.0001  0.0000  0.0001  0.0000  0.0408  0.0000  0.0408  0.2358 </r>
        <r>  0.0000  0.0000  0.0001  0.0001  0.0408  0.0408  0.1768  0.0000  0.0589 </r>
        <r>  0.0000  0.0001  0.0001  0.0000  0.0408  0.0000  0.1768  0.0408  0.0589 </r>
        <r>  0.0000  0.0000  0.0000  0.0000  0.0000  0.0000  0.0000  0.0000  0.0000 </r>
        <r>  0.0000  0.0000  0.0000  0.0000  0.0000  0.0000  0.0000  0.0000  0.0000 </r>
       </set>
       <set comment="band 18">
        <r>  0.0000  0.0004  0.0000  0.0005  0.0001  0.0124  0.0004  0.0117  0.0953 </r>
        <r>  0.0000  0.0004  0.0000  0.0004  0.0000  0.0110  0.0000  0.0086  0.3928 </r>
        <r>  0.0003  0.0004  0.0001  0.0001  0.0288  0.0733  0.0905  0.0030  0.0182 </r>
        <r>  0.0003  0.0001  0.0001  0.0004  0.0323  0.0032  0.0780  0.0745  0.0147 </r>
        <r>  0.0000  0.0013  0.0000  0.0014  0.0000  0.0000  0.0000  0.0000  0.0000 </r>
        <r>  0.0000  0.0013  0.0000  0.0014  0.0000  0.0000  0.0000  0.0000  0.0000 </r>
       </set>
       <set comment="band 19">
        <r>  0.0000  0.0002  0.0006  0.0001  0.0160  0.0037  0.0953  0.0044  0.0004 </r>
        <r>  0.0004  0.0000  0.0005  0.0000  0.0042  0.0652  0.0016  0.0675  0.0018 </r>
        <r>  0.0001  0.0001  0.0003  0.0003  0.0474  0.0029  0.2058  0.0011  0.0817 </r>
        <r>  0.0001  0.0003  0.0003  0.0001  0.0439  0.0010  0.2183  0.0017  0.0851 </r>
        <r>  0.0000  0.0005  0.0018  0.0004  0.0000  0.0000  0.0000  0.0000  0.0000 </r>
        <r>  0.0000  0.0005  0.0018  0.0004  0.0000  0.0000  0.0000  0.0000  0.0000 </r>
       </set>
       <set comment="band 20">
        <r>  0.0000  0.0000  0.0000  0.0000  0.0000  0.0000  0.0000  0.0000  0.0000 </r>
        <r>  0.0000  0.0000  0.0000  0.0000  0.0000  0.1211  0.0000  0.1211  0.0850 </r>
        <r>  0.0000  0.0000  0.0000  0.0000  0.1211  0.1211  0.0637  0.0000  0.0212 </r>
        <r>  0.0000  0.0000  0.0000  0.0000  0.1211  0.0000  0.0637  0.1211  0.0212 </r>
        <r>  0.0000  0.0000  0.0000  0.0000  0.0000  0.0000  0.0000  0.0000  0.0000 </r>
        <r>  0.0000  0.0000  0.0000  0.0000  0.0000  0.0000  0.0000  0.0000  0.0000 </r>
       </set>
       <set comment="band 21">
        <r>  0.0000  0.0002  0.0000  0.0001  0.0544  0.0899  0.0017  0.2114  0.0056 </r>
        <r>  0.0002  0.0002  0.0000  0.0007  0.0005  0.0738  0.0511  0.0570  0.0022 </r>
        <r>  0.0006  0.0002  0.0004  0.0002  0.0137  0.0088  0.0480  0.0020  0.1510 </r>
        <r>  0.0003  0.0001  0.0007  0.0001  0.0641  0.0008  0.0141  0.0423  0.0722 </r>
        <r>  0.0000  0.0016  0.0004  0.0007  0.0000  0.0000  0.0000  0.0000  0.0000 </r>
        <r>  0.0000  0.0016  0.0004  0.0007  0.0000  0.0000  0.0000  0.0000  0.0000 </r>
       </set>
       <set comment="band 22">
        <r>  0.0000  0.0000  0.0001  0.0001  0.1827  0.1473  0.0056  0.0257  0.0017 </r>
        <r>  0.0005  0.0006  0.0001  0.0001  0.0017  0.0127  0.1718  0.0296  0.0007 </r>
        <r>  0.0001  0.0000  0.0004  0.0006  0.0728  0.0778  0.0099  0.0002  0.0169 </r>
        <r>  0.0004  0.0007  0.0001  0.0001  0.0225  0.0014  0.0438  0.0443  0.0957 </r>
        <r>  0.0000  0.0002  0.0014  0.0011  0.0000  0.0000  0.0000  0.0000  0.0000 </r>
        <r>  0.0000  0.0002  0.0014  0.0011  0.0000  0.0000  0.0000  0.0000  0.0000 </r>
       </set>
       <set comment="band 23">
        <r>  0.0000  0.0000  0.0000  0.0000  0.0052  0.0010  0.4959  0.0028  0.0765 </r>
        <r>  0.0005  0.0014  0.0015  0.0018  0.1233  0.0140  0.0245  0.0215  0.0004 </r>
        <r>  0.0003  0.0008  0.0005  0.0013  0.0206  0.0037  0.0075  0.0675  0.0073 </r>
        <r>  0.0001  0.0006  0.0002  0.0003  0.0124  0.0228  0.0045  0.0030  0.0022 </r>
        <r>  0.0000  0.0072  0.0131  0.0024  0.0000  0.0000  0.0000  0.0000  0.0000 </r>
        <r>  0.0000  0.0072  0.0131  0.0024  0.0000  0.0000  0.0000  0.0000  0.0000 </r>
       </set>
       <set comment="band 24">
        <r>  0.0000  0.0000  0.0000  0.0000  0.0008  0.0050  0.0765  0.0032  0.4959 </r>
        <r>  0.0001  0.0006  0.0002  0.0002  0.0190  0.0111  0.0038  0.0036  0.0023 </r>
        <r>  0.0003  0.0009  0.0014  0.0006  0.0045  0.0214  0.0016  0.0749  0.0145 </r>
        <r>  0.0005  0.0013  0.0018  0.0015  0.0127  0.1196  0.0046  0.0221  0.0196 </r>
        <r>  0.0000  0.0080  0.0020  0.0127  0.0000  0.0000  0.0000  0.0000  0.0000 </r>
        <r>  0.0000  0.0080  0.0020  0.0127  0.0000  0.0000  0.0000  0.0000  0.0000 </r>
       </set>
       <set comment="band 25">
        <r>  0.0227  0.0027  0.0027  0.0027  0.0366  0.0366  0.0000  0.0366  0.0000 </r>
        <r>  0.0080  0.0007  0.0011  0.0007  0.1570  0.0095  0.0472  0.0095  0.0000 </r>
        <r>  0.0080  0.0011  0.0007  0.0007  0.0095  0.0095  0.0118  0.1570  0.0354 </r>
        <r>  0.0080  0.0007  0.0007  0.0011  0.0095  0.1570  0.0118  0.0095  0.0354 </r>
        <r>  0.0044  0.0130  0.0130  0.0130  0.0000  0.0000  0.0000  0.0000  0.0000 </r>
        <r>  0.0044  0.0130  0.0130  0.0130  0.0000  0.0000  0.0000  0.0000  0.0000 </r>
       </set>
       <set comment="band 26">
        <r>  0.0000  0.0009  0.0012  0.0017  0.0616  0.0831  0.0009  0.0447  0.0009 </r>
        <r>  0.0287  0.0007  0.0001  0.0014  0.0862  0.0463  0.0020  0.0257  0.0198 </r>
        <r>  0.0208  0.0000  0.0008  0.0012  0.0355  0.0471  0.0202  0.0626  0.0063 </r>
        <r>  0.0387  0.0009  0.0013  0.0001  0.0337  0.1164  0.0098  0.0247  0.0062 </r>
        <r>  0.0000  0.0093  0.0128  0.0172  0.0000  0.0000  0.0000  0.0000  0.0000 </r>
        <r>  0.0000  0.0093  0.0128  0.0172  0.0000  0.0000  0.0000  0.0000  0.0000 </r>
       </set>
       <set comment="band 27">
        <r>  0.0000  0.0016  0.0013  0.0009  0.0647  0.0431  0.0009  0.0816  0.0009 </r>
        <r>  0.0302  0.0014  0.0001  0.0007  0.0906  0.0247  0.0021  0.0453  0.0189 </r>
        <r>  0.0380  0.0001  0.0013  0.0009  0.0355  0.0239  0.0099  0.1142  0.0065 </r>
        <r>  0.0201  0.0012  0.0009  0.0000  0.0373  0.0604  0.0203  0.0463  0.0066 </r>
        <r>  0.0000  0.0169  0.0134  0.0089  0.0000  0.0000  0.0000  0.0000  0.0000 </r>
        <r>  0.0000  0.0169  0.0134  0.0089  0.0000  0.0000  0.0000  0.0000  0.0000 </r>
       </set>
       <set comment="band 28">
        <r>  0.0075  0.0023  0.0023  0.0023  0.0845  0.0845  0.0000  0.0845  0.0000 </r>
        <r>  0.0089  0.0001  0.0003  0.0001  0.0248  0.0677  0.0280  0.0677  0.0000 </r>
        <r>  0.0089  0.0003  0.0001  0.0001  0.0677  0.0677  0.0070  0.0248  0.0210 </r>
        <r>  0.0089  0.0001  0.0001  0.0003  0.0677  0.0248  0.0070  0.0677  0.0210 </r>
        <r>  0.0047  0.0150  0.0150  0.0150  0.0000  0.0000  0.0000  0.0000  0.0000 </r>
        <r>  0.0047  0.0150  0.0150  0.0150  0.0000  0.0000  0.0000  0.0000  0.0000 </r>
       </set>
       <set comment="band 29">
        <r>  0.0141  0.0013  0.0013  0.0013  0.0371  0.0371  0.0000  0.0371  0.0000 </r>
        <r>  0.0280  0.0068  0.0113  0.0068  0.0055  0.0222  0.0007  0.0222  0.0000 </r>
        <r>  0.0280  0.0113  0.0068  0.0068  0.0222  0.0222  0.0002  0.0055  0.0006 </r>
        <r>  0.0280  0.0068  0.0068  0.0113  0.0222  0.0055  0.0002  0.0222  0.0006 </r>
        <r>  0.0229  0.0309  0.0309  0.0309  0.0000  0.0000  0.0000  0.0000  0.0000 </r>
        <r>  0.0229  0.0309  0.0309  0.0309  0.0000  0.0000  0.0000  0.0000  0.0000 </r>
       </set>
       <set comment="band 30">
        <r>  0.0000  0.0158  0.0275  0.0374  0.0002  0.0003  0.0005  0.0001  0.0004 </r>
        <r>  0.0000  0.0192  0.0018  0.0227  0.0015  0.0206  0.0001  0.0116  0.0000 </r>
        <r>  0.0000  0.0011  0.0292  0.0309  0.0086  0.0128  0.0000  0.0009  0.0000 </r>
        <r>  0.0000  0.0122  0.0141  0.0025  0.0231  0.0020  0.0000  0.0183  0.0001 </r>
        <r>  0.0000  0.0193  0.0334  0.0456  0.0000  0.0000  0.0000  0.0000  0.0000 </r>
        <r>  0.0000  0.0193  0.0334  0.0456  0.0000  0.0000  0.0000  0.0000  0.0000 </r>
       </set>
       <set comment="band 31">
        <r>  0.0000  0.0380  0.0264  0.0164  0.0002  0.0001  0.0004  0.0003  0.0005 </r>
        <r>  0.0000  0.0236  0.0018  0.0201  0.0014  0.0111  0.0001  0.0201  0.0000 </r>
        <r>  0.0000  0.0026  0.0136  0.0119  0.0231  0.0189  0.0000  0.0020  0.0001 </r>
        <r>  0.0000  0.0306  0.0287  0.0011  0.0085  0.0009  0.0000  0.0134  0.0000 </r>
        <r>  0.0000  0.0462  0.0321  0.0200  0.0000  0.0000  0.0000  0.0000  0.0000 </r>
        <r>  0.0000  0.0462  0.0321  0.0200  0.0000  0.0000  0.0000  0.0000  0.0000 </r>
       </set>
       <set comment="band 32">
        <r>  0.2026  0.0004  0.0004  0.0004  0.0235  0.0235  0.0000  0.0235  0.0000 </r>
        <r>  0.0003  0.0000  0.0226  0.0000  0.0141  0.0006  0.0213  0.0006  0.0000 </r>
        <r>  0.0003  0.0226  0.0000  0.0000  0.0006  0.0006  0.0053  0.0141  0.0159 </r>
        <r>  0.0003  0.0000  0.0000  0.0226  0.0006  0.0141  0.0053  0.0006  0.0159 </r>
        <r>  0.0244  0.0077  0.0077  0.0077  0.0000  0.0000  0.0000  0.0000  0.0000 </r>
        <r>  0.0244  0.0077  0.0077  0.0077  0.0000  0.0000  0.0000  0.0000  0.0000 </r>
       </set>
       <set comment="band 33">
        <r>  0.0000  0.0001  0.0101  0.0112  0.0092  0.0101  0.0026  0.0001  0.0011 </r>
        <r>  0.0817  0.0049  0.0168  0.0021  0.0191  0.0079  0.0024  0.0358  0.0055 </r>
        <r>  0.0010  0.0002  0.0007  0.0004  0.0105  0.0078  0.0143  0.0002  0.0044 </r>
        <r>  0.0902  0.0051  0.0025  0.0186  0.0105  0.0211  0.0009  0.0358  0.0058 </r>
        <r>  0.0000  0.0005  0.0400  0.0441  0.0000  0.0000  0.0000  0.0000  0.0000 </r>
        <r>  0.0000  0.0005  0.0400  0.0441  0.0000  0.0000  0.0000  0.0000  0.0000 </r>
       </set>
       <set comment="band 34">
        <r>  0.0000  0.0142  0.0042  0.0031  0.0038  0.0028  0.0011  0.0128  0.0026 </r>
        <r>  0.0336  0.0003  0.0069  0.0031  0.0078  0.0282  0.0010  0.0003  0.0133 </r>
        <r>  0.1143  0.0235  0.0045  0.0048  0.0256  0.0283  0.0007  0.0267  0.0029 </r>
        <r>  0.0250  0.0002  0.0027  0.0052  0.0255  0.0059  0.0141  0.0003  0.0014 </r>
        <r>  0.0000  0.0559  0.0164  0.0122  0.0000  0.0000  0.0000  0.0000  0.0000 </r>
        <r>  0.0000  0.0559  0.0164  0.0122  0.0000  0.0000  0.0000  0.0000  0.0000 </r>
       </set>
       <set comment="band 35">
        <r>  0.1089  0.0085  0.0085  0.0084  0.0068  0.0068  0.0000  0.0068  0.0000 </r>
        <r>  0.0284  0.0013  0.0216  0.0013  0.0014  0.0000  0.0015  0.0000  0.0000 </r>
        <r>  0.0285  0.0215  0.0013  0.0013  0.0000  0.0000  0.0004  0.0014  0.0011 </r>
        <r>  0.0282  0.0013  0.0013  0.0218  0.0000  0.0015  0.0004  0.0000  0.0011 </r>
        <r>  0.0317  0.0182  0.0181  0.0180  0.0000  0.0000  0.0000  0.0000  0.0000 </r>
        <r>  0.0318  0.0181  0.0181  0.0182  0.0000  0.0000  0.0000  0.0000  0.0000 </r>
       </set>
       <set comment="band 36">
        <r>  0.0055  0.0012  0.0012  0.0012  0.0000  0.0000  0.0000  0.0000  0.0000 </r>
        <r>  0.0813  0.0225  0.0040  0.0227  0.0045  0.0000  0.0001  0.0000  0.0000 </r>
        <r>  0.0799  0.0044  0.0231  0.0230  0.0000  0.0000  0.0000  0.0044  0.0001 </r>
        <r>  0.0811  0.0226  0.0228  0.0040  0.0000  0.0044  0.0000  0.0000  0.0001 </r>
        <r>  0.0336  0.0111  0.0108  0.0108  0.0000  0.0000  0.0000  0.0000  0.0000 </r>
        <r>  0.0336  0.0109  0.0108  0.0109  0.0000  0.0000  0.0000  0.0000  0.0000 </r>
       </set>
      </set>
     </set>
    </set>
   </array>
  </projected>
 </calculation>
 <structure name="finalpos" >
  <crystal>
   <varray name="basis" >
    <v>       4.31332897       0.00000000       0.00000000 </v>
    <v>       0.00000000       4.31332897       0.00000000 </v>
    <v>       0.00000000       0.00000000       4.31332897 </v>
   </varray>
   <i name="volume">     80.24865198 </i>
   <varray name="rec_basis" >
    <v>       0.23183949       0.00000000       0.00000000 </v>
    <v>       0.00000000       0.23183949       0.00000000 </v>
    <v>       0.00000000       0.00000000       0.23183949 </v>
   </varray>
  </crystal>
  <varray name="positions" >
   <v>       0.25000000       0.25000000       0.25000000 </v>
   <v>       0.75000000       0.75000000       0.25000000 </v>
   <v>       0.75000000       0.25000000       0.75000000 </v>
   <v>       0.25000000       0.75000000       0.75000000 </v>
   <v>       0.00000000       0.00000000       0.00000000 </v>
   <v>       0.50000000       0.50000000       0.50000000 </v>
  </varray>
 </structure>
</modeling>
