unknown system                          
           1
     4.313329    0.000000    0.000000
     0.000000    4.313329    0.000000
     0.000000    0.000000    4.313329
   Cu   O 
   4   2
Direct configuration=     1
   0.25000000  0.25000000  0.25000000
   0.75000000  0.75000000  0.25000000
   0.75000000  0.25000000  0.75000000
   0.25000000  0.75000000  0.75000000
   0.00000000  0.00000000  0.00000000
   0.50000000  0.50000000  0.50000000
