 vasp.5.3.5 31Mar14 (build Apr 28 2014 12:24:55) complex                        
  
 executed on             LinuxIFC date 2017.09.28  08:58:46
 running on    1 total cores
 distrk:  each k-point on    1 cores,    1 groups
 distr:  one band on NCORES_PER_BAND=   1 cores,    1 groups


--------------------------------------------------------------------------------------------------------


 INCAR:
 POTCAR:   PAW_PBE Cu 05Jan2001                   
 POTCAR:   PAW_PBE O 08Apr2002                    
