 vasp.5.4.1 05Feb16 (build Aug 09 2016 09:44:09) complex                        
  
 executed on   Abel-impi-ifc-cuda date 2016.11.29  16:13:33
 running on   32 total cores
 distrk:  each k-point on   32 cores,    1 groups
 distr:  one band on NCORES_PER_BAND=   8 cores,    4 groups


--------------------------------------------------------------------------------------------------------


 INCAR:
 POTCAR:   PAW_PBE Cu 05Jan2001                   
 POTCAR:   PAW_PBE O 08Apr2002                    
 POTCAR:   PAW_PBE Cu 05Jan2001                   
   VRHFIN =Cu: d10 p1                                                           
   LEXCH  = PE                                                                  
   EATOM  =  1390.9800 eV,  102.2341 Ry                                         
                                                                                
   TITEL  = PAW_PBE Cu 05Jan2001                                                
   LULTRA =        F    use ultrasoft PP ?                                      
   IUNSCR =        1    unscreen: 0-lin 1-nonlin 2-no                           
   RPACOR =    2.000    partial core radius                                     
   POMASS =   63.546; ZVAL   =   11.000    mass and valenz                      
   RCORE  =    2.300    outmost cutoff radius                                   
   RWIGS  =    2.480; RWIGS  =    1.312    wigner-seitz radius (au A)           
   ENMAX  =  273.214; ENMIN  =  204.910 eV                                      
   RCLOC  =    1.712    cutoff for local pot                                    
   LCOR   =        T    correct aug charges                                     
   LPAW   =        T    paw PP                                                  
   EAUG   =  516.456                                                            
   DEXC   =    -.008                                                            
   RMAX   =    2.789    core radius for proj-oper                               
   RAUG   =    1.300    factor for augmentation sphere                          
   RDEP   =    2.302    radius for radial grids                                 
   QCUT   =   -4.481; QGAM   =    8.962    optimization parameters              
                                                                                
   Description                                                                  
     l     E      TYP  RCUT    TYP  RCUT                                        
     2   .000     23  2.300                                                     
     2   .000     23  2.300                                                     
     0   .000     23  2.300                                                     
     0   .000     23  2.300                                                     
     1  -.200     23  2.300                                                     
     1   .000     23  2.300                                                     
     3   .000      7   .000                                                     
  local pseudopotential read in
  partial core-charges read in
  atomic valenz-charges read in
  non local Contribution for L=           2  read in
    real space projection operators read in
  non local Contribution for L=           2  read in
    real space projection operators read in
  non local Contribution for L=           0  read in
    real space projection operators read in
  non local Contribution for L=           0  read in
    real space projection operators read in
  non local Contribution for L=           1  read in
    real space projection operators read in
  non local Contribution for L=           1  read in
    real space projection operators read in
    PAW grid and wavefunctions read in
 
   number of l-projection  operators is LMAX  =           6
   number of lm-projection operators is LMMAX =          18
 
 POTCAR:   PAW_PBE O 08Apr2002                    
   VRHFIN =O: s2p4                                                              
   LEXCH  = PE                                                                  
   EATOM  =   432.3788 eV,   31.7789 Ry                                         
                                                                                
   TITEL  = PAW_PBE O 08Apr2002                                                 
   LULTRA =        F    use ultrasoft PP ?                                      
   IUNSCR =        0    unscreen: 0-lin 1-nonlin 2-no                           
   RPACOR =     .000    partial core radius                                     
   POMASS =   16.000; ZVAL   =    6.000    mass and valenz                      
   RCORE  =    1.520    outmost cutoff radius                                   
   RWIGS  =    1.550; RWIGS  =     .820    wigner-seitz radius (au A)           
   ENMAX  =  400.000; ENMIN  =  300.000 eV                                      
   ICORE  =        2    local potential                                         
   LCOR   =        T    correct aug charges                                     
   LPAW   =        T    paw PP                                                  
   EAUG   =  605.392                                                            
   DEXC   =     .000                                                            
   RMAX   =    2.264    core radius for proj-oper                               
   RAUG   =    1.300    factor for augmentation sphere                          
   RDEP   =    1.550    radius for radial grids                                 
   QCUT   =   -5.520; QGAM   =   11.041    optimization parameters              
                                                                                
   Description                                                                  
     l     E      TYP  RCUT    TYP  RCUT                                        
     0   .000     23  1.200                                                     
     0  -.700     23  1.200                                                     
     1   .000     23  1.520                                                     
     1   .600     23  1.520                                                     
     2   .000      7  1.500                                                     
  local pseudopotential read in
  atomic valenz-charges read in
  non local Contribution for L=           0  read in
    real space projection operators read in
  non local Contribution for L=           0  read in
    real space projection operators read in
  non local Contribution for L=           1  read in
    real space projection operators read in
  non local Contribution for L=           1  read in
    real space projection operators read in
    PAW grid and wavefunctions read in
 
   number of l-projection  operators is LMAX  =           4
   number of lm-projection operators is LMMAX =           8
 
 Optimization of the real space projectors (new method)

 maximal supplied QI-value         = 16.25
 optimisation between [QCUT,QGAM] = [ 10.24, 20.48] = [ 29.35,117.42] Ry 
 Optimized for a Real-space Cutoff    1.38 Angstroem

   l    n(q)    QCUT    max X(q) W(low)/X(q) W(high)/X(q)  e(spline) 
   2      7    10.239     4.977    0.17E-04    0.72E-04    0.37E-07
   2      7    10.239    13.467    0.37E-03    0.57E-03    0.11E-06
   0      8    10.239    13.303    0.21E-04    0.11E-04    0.72E-08
   0      8    10.239    44.613    0.32E-03    0.63E-04    0.89E-07
   1      8    10.239     5.276    0.12E-03    0.12E-03    0.14E-07
   1      8    10.239     7.322    0.38E-03    0.54E-03    0.12E-06
 Optimization of the real space projectors (new method)

 maximal supplied QI-value         = 24.76
 optimisation between [QCUT,QGAM] = [ 10.15, 20.30] = [ 28.85,115.39] Ry 
 Optimized for a Real-space Cutoff    1.30 Angstroem

   l    n(q)    QCUT    max X(q) W(low)/X(q) W(high)/X(q)  e(spline) 
   0      8    10.150     4.192    0.55E-04    0.58E-04    0.78E-07
   0      8    10.150     8.473    0.46E-03    0.68E-03    0.23E-06
   1      7    10.150     2.474    0.11E-03    0.93E-04    0.33E-07
   1      7    10.150     3.912    0.46E-03    0.50E-03    0.15E-06
 PAW_PBE Cu 05Jan2001                   :
 energy of atom  1       EATOM=-1390.9800
 kinetic energy error for atom=    0.0117 (will be added to EATOM!!)
 PAW_PBE O 08Apr2002                    :
 energy of atom  2       EATOM= -432.3788
 kinetic energy error for atom=    0.1156 (will be added to EATOM!!)
 
 
 POSCAR: Cu2 O                                   
  positions in direct lattice
  velocities in cartesian coordinates
  No initial velocities read in
 exchange correlation table for  LEXCH =        8
   RHO(1)=    0.500       N(1)  =     2000
   RHO(2)=  100.500       N(2)  =     4000
 


--------------------------------------------------------------------------------------------------------


 ion  position               nearest neighbor table
   1  0.083  0.083  0.083- 110 1.84 109 1.84   4 3.01   2 3.01   3 3.01  36 3.01  37 3.01  39 3.01
                            40 3.01  33 3.01  34 3.01   7 3.01   5 3.01   6 3.01
   2  0.917  0.917  0.083- 109 1.84 146 1.84   4 3.01   1 3.01   3 3.01  33 3.01  34 3.01  26 3.01
                            31 3.01  35 3.01  38 3.01  78 3.01  88 3.01  64 3.01
   3  0.917  0.083  0.917- 109 1.84 136 1.84   4 3.01   1 3.01   2 3.01  39 3.01  40 3.01  21 3.01
                            31 3.01  32 3.01  35 3.01  75 3.01  85 3.01  57 3.01
   4  0.083  0.917  0.917- 109 1.84 141 1.84   3 3.01   1 3.01   2 3.01  36 3.01  37 3.01  21 3.01
                            26 3.01  32 3.01  38 3.01  76 3.01  82 3.01  60 3.01
   5  0.250  0.250  0.083- 110 1.84 131 1.84  73 3.01  93 3.01  37 3.01  39 3.01  52 3.01  16 3.01
                            12 3.01   1 3.01  43 3.01  42 3.01   7 3.01   6 3.01
   6  0.250  0.083  0.250- 110 1.84 127 1.84  70 3.01  90 3.01  34 3.01  36 3.01  48 3.01  12 3.01
                             8 3.01   1 3.01  43 3.01  41 3.01   7 3.01   5 3.01
   7  0.083  0.250  0.250- 110 1.84 123 1.84  67 3.01  91 3.01  33 3.01  40 3.01  44 3.01  16 3.01
                             8 3.01   1 3.01  42 3.01  41 3.01   6 3.01   5 3.01
   8  0.083  0.083  0.417- 111 1.84 118 1.84   9 3.01  10 3.01  11 3.01  33 3.01  34 3.01  70 3.01
                            91 3.01  22 3.01  23 3.01   7 3.01   6 3.01  41 3.01
   9  0.917  0.917  0.417- 111 1.84 160 1.84   8 3.01  10 3.01  11 3.01  33 3.01  34 3.01  80 3.01
                            68 3.01  69 3.01  92 3.01  88 3.01  78 3.01 106 3.01
  10  0.917  0.083  0.583- 138 1.84 112 1.84  11 3.01   9 3.01   8 3.01  23 3.01  91 3.01  21 3.01
                            69 3.01  32 3.01  68 3.01  85 3.01  58 3.01  57 3.01
  11  0.083  0.917  0.583- 142 1.84 112 1.84  10 3.01   9 3.01   8 3.01  22 3.01  70 3.01  21 3.01
                            32 3.01  92 3.01  80 3.01  61 3.01  76 3.01  60 3.01
  12  0.417  0.083  0.083- 113 1.84 121 1.84  13 3.01  14 3.01  15 3.01  36 3.01  37 3.01  73 3.01
                            90 3.01  28 3.01  29 3.01   6 3.01   5 3.01  43 3.01
  13  0.417  0.917  0.917- 113 1.84 161 1.84  12 3.01  14 3.01  15 3.01  36 3.01  37 3.01  83 3.01
                            71 3.01  72 3.01  89 3.01  76 3.01  82 3.01 108 3.01
  14  0.583  0.917  0.083- 144 1.84 114 1.84  15 3.01  13 3.01  12 3.01  29 3.01  90 3.01  31 3.01
                            72 3.01  35 3.01  71 3.01  88 3.01  62 3.01  64 3.01
  15  0.583  0.083  0.917- 135 1.84 114 1.84  14 3.01  13 3.01  12 3.01  28 3.01  73 3.01  31 3.01
                            35 3.01  89 3.01  83 3.01  56 3.01  75 3.01  57 3.01
  16  0.083  0.417  0.083- 115 1.84 119 1.84  17 3.01  18 3.01  19 3.01  39 3.01  40 3.01  67 3.01
                            93 3.01  24 3.01  25 3.01   7 3.01   5 3.01  42 3.01
  17  0.917  0.417  0.917- 115 1.84 162 1.84  16 3.01  18 3.01  19 3.01  39 3.01  40 3.01  86 3.01
                            65 3.01  66 3.01  94 3.01  75 3.01  85 3.01 107 3.01
  18  0.083  0.583  0.917- 139 1.84 116 1.84  19 3.01  17 3.01  16 3.01  24 3.01  93 3.01  26 3.01
                            66 3.01  38 3.01  65 3.01  82 3.01  59 3.01  60 3.01
  19  0.917  0.583  0.083- 145 1.84 116 1.84  18 3.01  17 3.01  16 3.01  25 3.01  67 3.01  26 3.01
                            38 3.01  94 3.01  86 3.01  63 3.01  78 3.01  64 3.01
  20  0.250  0.250  0.750- 117 1.84 155 1.84 103 3.01  65 3.01  83 3.01  21 3.01  93 3.01  77 3.01
                            73 3.01  84 3.01  39 3.01  37 3.01  23 3.01  22 3.01
  21  0.083  0.083  0.750- 112 1.84 117 1.84  32 3.01  76 3.01  85 3.01   4 3.01  10 3.01  11 3.01
                             3 3.01  20 3.01  23 3.01  22 3.01  37 3.01  39 3.01
  22  0.250  0.083  0.583- 118 1.84 128 1.84  70 3.01  49 3.01  11 3.01  48 3.01   8 3.01  41 3.01
                            76 3.01  84 3.01  23 3.01  83 3.01  20 3.01  21 3.01
  23  0.083  0.250  0.583- 118 1.84 125 1.84  91 3.01  46 3.01  10 3.01  44 3.01   8 3.01  41 3.01
                            85 3.01  77 3.01  22 3.01  65 3.01  20 3.01  21 3.01
  24  0.250  0.583  0.083- 119 1.84 133 1.84  93 3.01  54 3.01  18 3.01  52 3.01  16 3.01  42 3.01
                            82 3.01  79 3.01  25 3.01  71 3.01  27 3.01  26 3.01
  25  0.083  0.583  0.250- 119 1.84 124 1.84  67 3.01  45 3.01  19 3.01  44 3.01  16 3.01  42 3.01
                            78 3.01  81 3.01  24 3.01  80 3.01  27 3.01  26 3.01
  26  0.083  0.750  0.083- 116 1.84 120 1.84  38 3.01  78 3.01  82 3.01   4 3.01  18 3.01  19 3.01
                             2 3.01  27 3.01  24 3.01  25 3.01  36 3.01  34 3.01
  27  0.250  0.750  0.250- 120 1.84 158 1.84 105 3.01  71 3.01  80 3.01  26 3.01  90 3.01  79 3.01
                            70 3.01  81 3.01  36 3.01  34 3.01  24 3.01  25 3.01
  28  0.583  0.250  0.083- 121 1.84 132 1.84  73 3.01  53 3.01  15 3.01  52 3.01  12 3.01  43 3.01
                            75 3.01  87 3.01  29 3.01  86 3.01  31 3.01  30 3.01
  29  0.583  0.083  0.250- 121 1.84 129 1.84  90 3.01  50 3.01  14 3.01  48 3.01  12 3.01  43 3.01
                            88 3.01  74 3.01  28 3.01  68 3.01  31 3.01  30 3.01
  30  0.750  0.250  0.250- 122 1.84 157 1.84 104 3.01  68 3.01  86 3.01  31 3.01  91 3.01  74 3.01
                            67 3.01  87 3.01  40 3.01  33 3.01  28 3.01  29 3.01
  31  0.750  0.083  0.083- 114 1.84 122 1.84  35 3.01  75 3.01  88 3.01   3 3.01  14 3.01  15 3.01
                             2 3.01  30 3.01  28 3.01  29 3.01  33 3.01  40 3.01
  32  0.917  0.917  0.750- 112 1.84 152 1.84  21 3.01  57 3.01  60 3.01   4 3.01  10 3.01  11 3.01
                             3 3.01  69 3.01  92 3.01 100 3.01  35 3.01  38 3.01
  33  0.917  0.083  0.250- 111 1.84 122 1.84  34 3.01   7 3.01   9 3.01   8 3.01   1 3.01   2 3.01
                            91 3.01  40 3.01  88 3.01  68 3.01  30 3.01  31 3.01
  34  0.083  0.917  0.250- 111 1.84 120 1.84  33 3.01   6 3.01   9 3.01   8 3.01   1 3.01   2 3.01
                            70 3.01  36 3.01  78 3.01  80 3.01  27 3.01  26 3.01
  35  0.750  0.917  0.917- 114 1.84 152 1.84  31 3.01  57 3.01  64 3.01   3 3.01  14 3.01  15 3.01
                             2 3.01  72 3.01  89 3.01 100 3.01  32 3.01  38 3.01
  36  0.250  0.917  0.083- 113 1.84 120 1.84  37 3.01   6 3.01  13 3.01  12 3.01   1 3.01   4 3.01
                            90 3.01  34 3.01  82 3.01  71 3.01  27 3.01  26 3.01
  37  0.250  0.083  0.917- 113 1.84 117 1.84  36 3.01   5 3.01  13 3.01  12 3.01   1 3.01   4 3.01
                            73 3.01  39 3.01  76 3.01  83 3.01  20 3.01  21 3.01
  38  0.917  0.750  0.917- 116 1.84 152 1.84  26 3.01  60 3.01  64 3.01   4 3.01  18 3.01  19 3.01
                             2 3.01  66 3.01  94 3.01 100 3.01  32 3.01  35 3.01
  39  0.083  0.250  0.917- 115 1.84 117 1.84  40 3.01   5 3.01  17 3.01  16 3.01   1 3.01   3 3.01
                            93 3.01  37 3.01  85 3.01  65 3.01  20 3.01  21 3.01
  40  0.917  0.250  0.083- 115 1.84 122 1.84  39 3.01   7 3.01  17 3.01  16 3.01   1 3.01   3 3.01
                            67 3.01  33 3.01  75 3.01  86 3.01  30 3.01  31 3.01
  41  0.250  0.250  0.417- 118 1.84 147 1.84  77 3.01  84 3.01  95 3.01  42 3.01  43 3.01  48 3.01
                            44 3.01   8 3.01  23 3.01  22 3.01   6 3.01   7 3.01
  42  0.250  0.417  0.250- 119 1.84 147 1.84  79 3.01  81 3.01  95 3.01  41 3.01  43 3.01  52 3.01
                            44 3.01  16 3.01  25 3.01  24 3.01   5 3.01   7 3.01
  43  0.417  0.250  0.250- 121 1.84 147 1.84  74 3.01  87 3.01  95 3.01  41 3.01  42 3.01  52 3.01
                            48 3.01  12 3.01  29 3.01  28 3.01   5 3.01   6 3.01
  44  0.083  0.417  0.417- 123 1.84 140 1.84  45 3.01  46 3.01  67 3.01  91 3.01  47 3.01  25 3.01
                            23 3.01   7 3.01  81 3.01  77 3.01  42 3.01  41 3.01
  45  0.917  0.583  0.417- 124 1.84 154 1.84  25 3.01  44 3.01  47 3.01  46 3.01  67 3.01  80 3.01
                           104 3.01  92 3.01 102 3.01  63 3.01  78 3.01 106 3.01
  46  0.917  0.417  0.583- 125 1.84 154 1.84  23 3.01  44 3.01  47 3.01  45 3.01  91 3.01  65 3.01
                           104 3.01  66 3.01 102 3.01  85 3.01  58 3.01 107 3.01
  47  0.083  0.583  0.583- 140 1.84 126 1.84  45 3.01  46 3.01  44 3.01  77 3.01  81 3.01  66 3.01
                            92 3.01  65 3.01  80 3.01  59 3.01  61 3.01  60 3.01
  48  0.417  0.083  0.417- 127 1.84 137 1.84  49 3.01  50 3.01  70 3.01  90 3.01  51 3.01  29 3.01
                            22 3.01   6 3.01  84 3.01  74 3.01  43 3.01  41 3.01
  49  0.417  0.917  0.583- 128 1.84 153 1.84  22 3.01  48 3.01  51 3.01  50 3.01  70 3.01  83 3.01
                           105 3.01  89 3.01 101 3.01  61 3.01  76 3.01 108 3.01
  50  0.583  0.917  0.417- 129 1.84 153 1.84  29 3.01  48 3.01  51 3.01  49 3.01  90 3.01  68 3.01
                           105 3.01  69 3.01 101 3.01  88 3.01  62 3.01 106 3.01
  51  0.583  0.083  0.583- 137 1.84 130 1.84  49 3.01  50 3.01  48 3.01  74 3.01  84 3.01  69 3.01
                            89 3.01  68 3.01  83 3.01  56 3.01  58 3.01  57 3.01
  52  0.417  0.417  0.083- 131 1.84 143 1.84  53 3.01  54 3.01  73 3.01  93 3.01  55 3.01  28 3.01
                            24 3.01   5 3.01  87 3.01  79 3.01  43 3.01  42 3.01
  53  0.583  0.417  0.917- 132 1.84 151 1.84  28 3.01  52 3.01  55 3.01  54 3.01  73 3.01  86 3.01
                           103 3.01  94 3.01  99 3.01  56 3.01  75 3.01 107 3.01
  54  0.417  0.583  0.917- 133 1.84 151 1.84  24 3.01  52 3.01  55 3.01  53 3.01  93 3.01  71 3.01
                           103 3.01  72 3.01  99 3.01  82 3.01  59 3.01 108 3.01
  55  0.583  0.583  0.083- 143 1.84 134 1.84  53 3.01  54 3.01  52 3.01  79 3.01  87 3.01  72 3.01
                            94 3.01  71 3.01  86 3.01  62 3.01  63 3.01  64 3.01
  56  0.583  0.250  0.750- 135 1.84 149 1.84 103 3.01  83 3.01  84 3.01  73 3.01 107 3.01  97 3.01
                            53 3.01  51 3.01  15 3.01  57 3.01  75 3.01  58 3.01
  57  0.750  0.083  0.750- 130 1.84 136 1.84  69 3.01  89 3.01  32 3.01  35 3.01  85 3.01  58 3.01
                            56 3.01  75 3.01  15 3.01   3 3.01  10 3.01  51 3.01
  58  0.750  0.250  0.583- 138 1.84 149 1.84 104 3.01  68 3.01  91 3.01  74 3.01 107 3.01  97 3.01
                            46 3.01  10 3.01  51 3.01  57 3.01  56 3.01  85 3.01
  59  0.250  0.583  0.750- 139 1.84 150 1.84 103 3.01  65 3.01  93 3.01  77 3.01 108 3.01  98 3.01
                            54 3.01  47 3.01  18 3.01  60 3.01  61 3.01  82 3.01
  60  0.083  0.750  0.750- 126 1.84 141 1.84  66 3.01  92 3.01  32 3.01  38 3.01  82 3.01  61 3.01
                            59 3.01  76 3.01  18 3.01   4 3.01  11 3.01  47 3.01
  61  0.250  0.750  0.583- 142 1.84 150 1.84 105 3.01  80 3.01  81 3.01  70 3.01 108 3.01  98 3.01
                            49 3.01  47 3.01  11 3.01  60 3.01  76 3.01  59 3.01
  62  0.583  0.750  0.250- 144 1.84 148 1.84 105 3.01  71 3.01  90 3.01  79 3.01 106 3.01  96 3.01
                            50 3.01  14 3.01  55 3.01  64 3.01  63 3.01  88 3.01
  63  0.750  0.583  0.250- 145 1.84 148 1.84 104 3.01  86 3.01  87 3.01  67 3.01 106 3.01  96 3.01
                            45 3.01  19 3.01  55 3.01  64 3.01  78 3.01  62 3.01
  64  0.750  0.750  0.083- 134 1.84 146 1.84  72 3.01  94 3.01  35 3.01  38 3.01  88 3.01  63 3.01
                            62 3.01  78 3.01  19 3.01   2 3.01  14 3.01  55 3.01
  65  0.083  0.417  0.750- 125 1.84 139 1.84  66 3.01  85 3.01  59 3.01  20 3.01  46 3.01  17 3.01
                            47 3.01  18 3.01  39 3.01  23 3.01  77 3.01  93 3.01
  66  0.917  0.583  0.750- 126 1.84 162 1.84  65 3.01  60 3.01  18 3.01  47 3.01 107 3.01  46 3.01
                            17 3.01 100 3.01 102 3.01  38 3.01  92 3.01  94 3.01
  67  0.917  0.417  0.250- 123 1.84 145 1.84  25 3.01   7 3.01  44 3.01  45 3.01  16 3.01  91 3.01
                            19 3.01  40 3.01  63 3.01  30 3.01 104 3.01  86 3.01
  68  0.750  0.083  0.417- 129 1.84 138 1.84  69 3.01  88 3.01  58 3.01  30 3.01  50 3.01   9 3.01
                            51 3.01  10 3.01  33 3.01  29 3.01  74 3.01  91 3.01
  69  0.750  0.917  0.583- 130 1.84 160 1.84  68 3.01  57 3.01  10 3.01  51 3.01 106 3.01  50 3.01
                             9 3.01 100 3.01 101 3.01  32 3.01  89 3.01  92 3.01
  70  0.250  0.917  0.417- 127 1.84 142 1.84  22 3.01   6 3.01  48 3.01  49 3.01   8 3.01  90 3.01
                            11 3.01  34 3.01  61 3.01  27 3.01 105 3.01  80 3.01
  71  0.417  0.750  0.083- 133 1.84 144 1.84  72 3.01  82 3.01  62 3.01  27 3.01  54 3.01  13 3.01
                            55 3.01  14 3.01  36 3.01  24 3.01  79 3.01  90 3.01
  72  0.583  0.750  0.917- 134 1.84 161 1.84  71 3.01  64 3.01  14 3.01  55 3.01 108 3.01  54 3.01
                            13 3.01  99 3.01 100 3.01  35 3.01  89 3.01  94 3.01
  73  0.417  0.250  0.917- 131 1.84 135 1.84  28 3.01   5 3.01  52 3.01  53 3.01  12 3.01  93 3.01
                            15 3.01  37 3.01  56 3.01  20 3.01 103 3.01  83 3.01
  74  0.583  0.250  0.417- 137 1.84 157 1.84  84 3.01  97 3.01  43 3.01  95 3.01  87 3.01  48 3.01
                            51 3.01  29 3.01  58 3.01  30 3.01 104 3.01  68 3.01
  75  0.750  0.250  0.917- 132 1.84 136 1.84  86 3.01  31 3.01  28 3.01  40 3.01 107 3.01  53 3.01
                            17 3.01  15 3.01   3 3.01  57 3.01  56 3.01  85 3.01
  76  0.250  0.917  0.750- 128 1.84 141 1.84  83 3.01  21 3.01  22 3.01  37 3.01 108 3.01  49 3.01
                            13 3.01  11 3.01   4 3.01  60 3.01  61 3.01  82 3.01
  77  0.250  0.417  0.583- 140 1.84 155 1.84  81 3.01  98 3.01  41 3.01  95 3.01  84 3.01  44 3.01
                            47 3.01  23 3.01  59 3.01  20 3.01 103 3.01  65 3.01
  78  0.917  0.750  0.250- 124 1.84 146 1.84  80 3.01  26 3.01  25 3.01  34 3.01 106 3.01  45 3.01
                             9 3.01   2 3.01  19 3.01  64 3.01  88 3.01  63 3.01
  79  0.417  0.583  0.250- 143 1.84 158 1.84  87 3.01  96 3.01  42 3.01  95 3.01  81 3.01  52 3.01
                            55 3.01  24 3.01  62 3.01  27 3.01 105 3.01  71 3.01
  80  0.083  0.750  0.417- 124 1.84 142 1.84  92 3.01  78 3.01  61 3.01  45 3.01   9 3.01  27 3.01
                            47 3.01  11 3.01  25 3.01  34 3.01  81 3.01  70 3.01
  81  0.250  0.583  0.417- 140 1.84 158 1.84  77 3.01  98 3.01  42 3.01  95 3.01  79 3.01  44 3.01
                            47 3.01  25 3.01  61 3.01  27 3.01 105 3.01  80 3.01
  82  0.250  0.750  0.917- 133 1.84 141 1.84  71 3.01  26 3.01  24 3.01  36 3.01 108 3.01  54 3.01
                            13 3.01   4 3.01  18 3.01  60 3.01  76 3.01  59 3.01
  83  0.417  0.083  0.750- 128 1.84 135 1.84  89 3.01  76 3.01  56 3.01  49 3.01  13 3.01  20 3.01
                            51 3.01  15 3.01  22 3.01  37 3.01  84 3.01  73 3.01
  84  0.417  0.250  0.583- 137 1.84 155 1.84  74 3.01  97 3.01  41 3.01  95 3.01  77 3.01  48 3.01
                            51 3.01  22 3.01  56 3.01  20 3.01 103 3.01  83 3.01
  85  0.917  0.250  0.750- 125 1.84 136 1.84  65 3.01  21 3.01  23 3.01  39 3.01 107 3.01  46 3.01
                            17 3.01  10 3.01   3 3.01  57 3.01  75 3.01  58 3.01
  86  0.750  0.417  0.083- 132 1.84 145 1.84  94 3.01  75 3.01  63 3.01  53 3.01  17 3.01  30 3.01
                            55 3.01  19 3.01  28 3.01  40 3.01  87 3.01  67 3.01
  87  0.583  0.417  0.250- 143 1.84 157 1.84  79 3.01  96 3.01  43 3.01  95 3.01  74 3.01  52 3.01
                            55 3.01  28 3.01  63 3.01  30 3.01 104 3.01  86 3.01
  88  0.750  0.917  0.250- 129 1.84 146 1.84  68 3.01  31 3.01  29 3.01  33 3.01 106 3.01  50 3.01
                             9 3.01   2 3.01  14 3.01  64 3.01  78 3.01  62 3.01
  89  0.583  0.917  0.750- 130 1.84 161 1.84  83 3.01  57 3.01  15 3.01  51 3.01 108 3.01  49 3.01
                            13 3.01 100 3.01 101 3.01  69 3.01  72 3.01  35 3.01
  90  0.417  0.917  0.250- 127 1.84 144 1.84  29 3.01   6 3.01  48 3.01  50 3.01  12 3.01  70 3.01
                            14 3.01  36 3.01  62 3.01  27 3.01 105 3.01  71 3.01
  91  0.917  0.250  0.417- 123 1.84 138 1.84  23 3.01   7 3.01  44 3.01  46 3.01   8 3.01  67 3.01
                            10 3.01  33 3.01  58 3.01  30 3.01 104 3.01  68 3.01
  92  0.917  0.750  0.583- 126 1.84 160 1.84  80 3.01  60 3.01  11 3.01  47 3.01 106 3.01  45 3.01
                             9 3.01 100 3.01 102 3.01  66 3.01  69 3.01  32 3.01
  93  0.250  0.417  0.917- 131 1.84 139 1.84  24 3.01   5 3.01  52 3.01  54 3.01  16 3.01  73 3.01
                            18 3.01  39 3.01  59 3.01  20 3.01 103 3.01  65 3.01
  94  0.750  0.583  0.917- 134 1.84 162 1.84  86 3.01  64 3.01  19 3.01  55 3.01 107 3.01  53 3.01
                            17 3.01  99 3.01 100 3.01  66 3.01  72 3.01  38 3.01
  95  0.417  0.417  0.417- 147 1.84 159 1.84  98 3.01  96 3.01  97 3.01  87 3.01  74 3.01  77 3.01
                            79 3.01  81 3.01  84 3.01  43 3.01  41 3.01  42 3.01
  96  0.583  0.583  0.417- 159 1.84 148 1.84  98 3.01  95 3.01  97 3.01  87 3.01  79 3.01 104 3.01
                           105 3.01 101 3.01 102 3.01  63 3.01  62 3.01 106 3.01
  97  0.583  0.417  0.583- 159 1.84 149 1.84  98 3.01  95 3.01  96 3.01  84 3.01  74 3.01 103 3.01
                           104 3.01  99 3.01 102 3.01  58 3.01  56 3.01 107 3.01
  98  0.417  0.583  0.583- 159 1.84 150 1.84  97 3.01  95 3.01  96 3.01  81 3.01  77 3.01 103 3.01
                           105 3.01  99 3.01 101 3.01  61 3.01  59 3.01 108 3.01
  99  0.583  0.583  0.750- 151 1.84 156 1.84 103 3.01  98 3.01  53 3.01 107 3.01 108 3.01  54 3.01
                            97 3.01  72 3.01  94 3.01 100 3.01 101 3.01 102 3.01
 100  0.750  0.750  0.750- 152 1.84 156 1.84  38 3.01  66 3.01  69 3.01  72 3.01  89 3.01  92 3.01
                            94 3.01  99 3.01 101 3.01 102 3.01  32 3.01  35 3.01
 101  0.583  0.750  0.583- 153 1.84 156 1.84 105 3.01  98 3.01  49 3.01 106 3.01 108 3.01  50 3.01
                            96 3.01  69 3.01  89 3.01  99 3.01 100 3.01 102 3.01
 102  0.750  0.583  0.583- 154 1.84 156 1.84 104 3.01  97 3.01  45 3.01 106 3.01 107 3.01  46 3.01
                            96 3.01  66 3.01  92 3.01  99 3.01 100 3.01 101 3.01
 103  0.417  0.417  0.750- 155 1.84 151 1.84  99 3.01  59 3.01  56 3.01  20 3.01  98 3.01  53 3.01
                            54 3.01  97 3.01  77 3.01  84 3.01  93 3.01  73 3.01
 104  0.750  0.417  0.417- 157 1.84 154 1.84 102 3.01  63 3.01  58 3.01  30 3.01  97 3.01  45 3.01
                            46 3.01  96 3.01  74 3.01  87 3.01  91 3.01  67 3.01
 105  0.417  0.750  0.417- 158 1.84 153 1.84 101 3.01  62 3.01  61 3.01  27 3.01  98 3.01  49 3.01
                            50 3.01  96 3.01  79 3.01  81 3.01  90 3.01  70 3.01
 106  0.750  0.750  0.417- 148 1.84 160 1.84 101 3.01 102 3.01  69 3.01  92 3.01  62 3.01  78 3.01
                            88 3.01  63 3.01   9 3.01  45 3.01  50 3.01  96 3.01
 107  0.750  0.417  0.750- 149 1.84 162 1.84  99 3.01 102 3.01  66 3.01  94 3.01  56 3.01  75 3.01
                            85 3.01  58 3.01  17 3.01  46 3.01  53 3.01  97 3.01
 108  0.417  0.750  0.750- 150 1.84 161 1.84  99 3.01 101 3.01  72 3.01  89 3.01  59 3.01  76 3.01
                            82 3.01  61 3.01  13 3.01  49 3.01  54 3.01  98 3.01
 109  0.000  0.000  0.000-   2 1.84   3 1.84   4 1.84   1 1.84
 110  0.167  0.167  0.167-   5 1.84   6 1.84   7 1.84   1 1.84
 111  0.000  0.000  0.333-   9 1.84   8 1.84  33 1.84  34 1.84
 112  0.000  0.000  0.667-  32 1.84  21 1.84  10 1.84  11 1.84
 113  0.333  0.000  0.000-  13 1.84  12 1.84  37 1.84  36 1.84
 114  0.667  0.000  0.000-  35 1.84  31 1.84  14 1.84  15 1.84
 115  0.000  0.333  0.000-  17 1.84  16 1.84  39 1.84  40 1.84
 116  0.000  0.667  0.000-  38 1.84  26 1.84  18 1.84  19 1.84
 117  0.167  0.167  0.833-  20 1.84  21 1.84  37 1.84  39 1.84
 118  0.167  0.167  0.500-  22 1.84  23 1.84  41 1.84   8 1.84
 119  0.167  0.500  0.167-  24 1.84  25 1.84  42 1.84  16 1.84
 120  0.167  0.833  0.167-  27 1.84  26 1.84  34 1.84  36 1.84
 121  0.500  0.167  0.167-  28 1.84  29 1.84  43 1.84  12 1.84
 122  0.833  0.167  0.167-  30 1.84  31 1.84  33 1.84  40 1.84
 123  0.000  0.333  0.333-  44 1.84  67 1.84  91 1.84   7 1.84
 124  0.000  0.667  0.333-  80 1.84  78 1.84  45 1.84  25 1.84
 125  0.000  0.333  0.667-  65 1.84  85 1.84  46 1.84  23 1.84
 126  0.000  0.667  0.667-  60 1.84  66 1.84  92 1.84  47 1.84
 127  0.333  0.000  0.333-  48 1.84  70 1.84  90 1.84   6 1.84
 128  0.333  0.000  0.667-  83 1.84  76 1.84  49 1.84  22 1.84
 129  0.667  0.000  0.333-  68 1.84  88 1.84  50 1.84  29 1.84
 130  0.667  0.000  0.667-  57 1.84  69 1.84  89 1.84  51 1.84
 131  0.333  0.333  0.000-  52 1.84  73 1.84  93 1.84   5 1.84
 132  0.667  0.333  0.000-  86 1.84  75 1.84  53 1.84  28 1.84
 133  0.333  0.667  0.000-  71 1.84  82 1.84  54 1.84  24 1.84
 134  0.667  0.667  0.000-  64 1.84  72 1.84  94 1.84  55 1.84
 135  0.500  0.167  0.833-  56 1.84  83 1.84  15 1.84  73 1.84
 136  0.833  0.167  0.833-  57 1.84  75 1.84  85 1.84   3 1.84
 137  0.500  0.167  0.500-  51 1.84  74 1.84  84 1.84  48 1.84
 138  0.833  0.167  0.500-  58 1.84  68 1.84  10 1.84  91 1.84
 139  0.167  0.500  0.833-  59 1.84  65 1.84  18 1.84  93 1.84
 140  0.167  0.500  0.500-  47 1.84  77 1.84  81 1.84  44 1.84
 141  0.167  0.833  0.833-  60 1.84  82 1.84  76 1.84   4 1.84
 142  0.167  0.833  0.500-  61 1.84  80 1.84  11 1.84  70 1.84
 143  0.500  0.500  0.167-  55 1.84  79 1.84  87 1.84  52 1.84
 144  0.500  0.833  0.167-  62 1.84  71 1.84  14 1.84  90 1.84
 145  0.833  0.500  0.167-  63 1.84  86 1.84  19 1.84  67 1.84
 146  0.833  0.833  0.167-  64 1.84  78 1.84  88 1.84   2 1.84
 147  0.333  0.333  0.333-  95 1.84  42 1.84  43 1.84  41 1.84
 148  0.667  0.667  0.333- 106 1.84  63 1.84  62 1.84  96 1.84
 149  0.667  0.333  0.667- 107 1.84  58 1.84  56 1.84  97 1.84
 150  0.333  0.667  0.667- 108 1.84  61 1.84  59 1.84  98 1.84
 151  0.500  0.500  0.833-  99 1.84 103 1.84  53 1.84  54 1.84
 152  0.833  0.833  0.833- 100 1.84  35 1.84  38 1.84  32 1.84
 153  0.500  0.833  0.500- 101 1.84 105 1.84  49 1.84  50 1.84
 154  0.833  0.500  0.500- 102 1.84 104 1.84  45 1.84  46 1.84
 155  0.333  0.333  0.667- 103 1.84  20 1.84  84 1.84  77 1.84
 156  0.667  0.667  0.667- 100 1.84  99 1.84 101 1.84 102 1.84
 157  0.667  0.333  0.333- 104 1.84  30 1.84  74 1.84  87 1.84
 158  0.333  0.667  0.333- 105 1.84  27 1.84  81 1.84  79 1.84
 159  0.500  0.500  0.500-  96 1.84  97 1.84  98 1.84  95 1.84
 160  0.833  0.833  0.500- 106 1.84  92 1.84  69 1.84   9 1.84
 161  0.500  0.833  0.833- 108 1.84  89 1.84  72 1.84  13 1.84
 162  0.833  0.500  0.833- 107 1.84  94 1.84  66 1.84  17 1.84
 
  LATTYP: Found a simple cubic cell.
 ALAT       =    12.7800006866
  
  Lattice vectors:
  
 A1 = (  12.7800006866,   0.0000000000,   0.0000000000)
 A2 = (   0.0000000000,  12.7800006866,   0.0000000000)
 A3 = (   0.0000000000,   0.0000000000,  12.7800006866)


Analysis of symmetry for initial positions (statically):
=====================================================================
 Subroutine PRICEL returns following result:
 
  LATTYP: Found a simple cubic cell.
 ALAT       =     4.2599999690
  
  Lattice vectors:
  
 A1 = (   4.2599999690,   0.0000000000,   0.0000000000)
 A2 = (   0.0000000000,   4.2599999690,   0.0000000000)
 A3 = (   0.0000000000,   0.0000000000,   4.2599999690)
 
  27 primitive cells build up your supercell.
 

 Routine SETGRP: Setting up the symmetry group for a 
 simple cubic supercell.


 Subroutine GETGRP returns: Found 48 space group operations
 (whereof 24 operations were pure point group operations)
 out of a pool of 48 trial point group operations.


The static configuration has the point symmetry T_d .
 The point group associated with its full space group is O_h .


Analysis of symmetry for dynamics (positions and initial velocities):
=====================================================================
 Subroutine PRICEL returns following result:
 
  LATTYP: Found a simple cubic cell.
 ALAT       =     4.2599999690
  
  Lattice vectors:
  
 A1 = (   4.2599999690,   0.0000000000,   0.0000000000)
 A2 = (   0.0000000000,   4.2599999690,   0.0000000000)
 A3 = (   0.0000000000,   0.0000000000,   4.2599999690)
 
  27 primitive cells build up your supercell.
 

 Routine SETGRP: Setting up the symmetry group for a 
 simple cubic supercell.


 Subroutine GETGRP returns: Found 48 space group operations
 (whereof 24 operations were pure point group operations)
 out of a pool of 48 trial point group operations.


The dynamic configuration has the point symmetry T_d .
 The point group associated with its full space group is O_h .


 Subroutine INISYM returns: Found 48 space group operations
 (whereof 24 operations are pure point group operations),
 and found    27 'primitive' translations

 
 
 KPOINTS: k-density: 4.0                          

Automatic generation of k-mesh.
Space group operators:
 irot       det(A)        alpha          n_x          n_y          n_z        tau_x        tau_y        tau_z
    1     1.000000     0.000000     1.000000     0.000000     0.000000     0.000000     0.000000     0.000000
    2     1.000000   120.000000    -0.577350    -0.577350    -0.577350     0.000000     0.000000     0.000000
    3     1.000000   120.000000     0.577350     0.577350     0.577350     0.000000     0.000000     0.000000
    4    -1.000000    90.000000     0.000000     0.000000    -1.000000     0.000000     0.000000     0.000000
    5    -1.000000   180.000000     0.000000     0.707107     0.707107     0.000000     0.000000     0.000000
    6    -1.000000    90.000000     0.000000     1.000000     0.000000     0.000000     0.000000     0.000000
    7     1.000000   180.000000     0.000000     0.000000     1.000000     0.000000     0.000000     0.000000
    8     1.000000   120.000000    -0.577350     0.577350     0.577350     0.000000     0.000000     0.000000
    9     1.000000   120.000000    -0.577350     0.577350    -0.577350     0.000000     0.000000     0.000000
   10    -1.000000    90.000000     0.000000     0.000000     1.000000     0.000000     0.000000     0.000000
   11    -1.000000    90.000000    -1.000000     0.000000     0.000000     0.000000     0.000000     0.000000
   12    -1.000000   180.000000     0.707107     0.000000     0.707107     0.000000     0.000000     0.000000
   13     1.000000   120.000000     0.577350    -0.577350     0.577350     0.000000     0.000000     0.000000
   14     1.000000   120.000000    -0.577350    -0.577350     0.577350     0.000000     0.000000     0.000000
   15     1.000000   180.000000     1.000000     0.000000     0.000000     0.000000     0.000000     0.000000
   16    -1.000000    90.000000     0.000000    -1.000000     0.000000     0.000000     0.000000     0.000000
   17    -1.000000   180.000000     0.707107     0.707107     0.000000     0.000000     0.000000     0.000000
   18    -1.000000    90.000000     1.000000     0.000000     0.000000     0.000000     0.000000     0.000000
   19     1.000000   120.000000     0.577350    -0.577350    -0.577350     0.000000     0.000000     0.000000
   20     1.000000   180.000000     0.000000     1.000000     0.000000     0.000000     0.000000     0.000000
   21     1.000000   120.000000     0.577350     0.577350    -0.577350     0.000000     0.000000     0.000000
   22    -1.000000   180.000000     0.000000    -0.707107     0.707107     0.000000     0.000000     0.000000
   23    -1.000000   180.000000     0.707107    -0.707107     0.000000     0.000000     0.000000     0.000000
   24    -1.000000   180.000000     0.707107     0.000000    -0.707107     0.000000     0.000000     0.000000
   25    -1.000000     0.000000     1.000000     0.000000     0.000000     0.166667     0.166667     0.166667
   26    -1.000000   120.000000    -0.577350    -0.577350    -0.577350     0.166667     0.166667     0.166667
   27    -1.000000   120.000000     0.577350     0.577350     0.577350     0.166667     0.166667     0.166667
   28     1.000000    90.000000     0.000000     0.000000    -1.000000     0.166667     0.166667     0.166667
   29     1.000000   180.000000     0.000000     0.707107     0.707107     0.166667     0.166667     0.166667
   30     1.000000    90.000000     0.000000     1.000000     0.000000     0.166667     0.166667     0.166667
   31    -1.000000   180.000000     0.000000     0.000000     1.000000     0.166667     0.166667     0.166667
   32    -1.000000   120.000000    -0.577350     0.577350     0.577350     0.166667     0.166667     0.166667
   33    -1.000000   120.000000    -0.577350     0.577350    -0.577350     0.166667     0.166667     0.166667
   34     1.000000    90.000000     0.000000     0.000000     1.000000     0.166667     0.166667     0.166667
   35     1.000000    90.000000    -1.000000     0.000000     0.000000     0.166667     0.166667     0.166667
   36     1.000000   180.000000     0.707107     0.000000     0.707107     0.166667     0.166667     0.166667
   37    -1.000000   120.000000     0.577350    -0.577350     0.577350     0.166667     0.166667     0.166667
   38    -1.000000   120.000000    -0.577350    -0.577350     0.577350     0.166667     0.166667     0.166667
   39    -1.000000   180.000000     1.000000     0.000000     0.000000     0.166667     0.166667     0.166667
   40     1.000000    90.000000     0.000000    -1.000000     0.000000     0.166667     0.166667     0.166667
   41     1.000000   180.000000     0.707107     0.707107     0.000000     0.166667     0.166667     0.166667
   42     1.000000    90.000000     1.000000     0.000000     0.000000     0.166667     0.166667     0.166667
   43    -1.000000   120.000000     0.577350    -0.577350    -0.577350     0.166667     0.166667     0.166667
   44    -1.000000   180.000000     0.000000     1.000000     0.000000     0.166667     0.166667     0.166667
   45    -1.000000   120.000000     0.577350     0.577350    -0.577350     0.166667     0.166667     0.166667
   46     1.000000   180.000000     0.000000    -0.707107     0.707107     0.166667     0.166667     0.166667
   47     1.000000   180.000000     0.707107    -0.707107     0.000000     0.166667     0.166667     0.166667
   48     1.000000   180.000000     0.707107     0.000000    -0.707107     0.166667     0.166667     0.166667
 
 Subroutine IBZKPT returns following result:
 ===========================================
 
 Found      4 irreducible k-points:
 
 Following reciprocal coordinates:
            Coordinates               Weight
  0.000000  0.000000  0.000000      1.000000
  0.500000  0.000000  0.000000      3.000000
  0.500000  0.500000  0.000000      3.000000
  0.500000  0.500000  0.500000      1.000000
 
 Following cartesian coordinates:
            Coordinates               Weight
  0.000000  0.000000  0.000000      1.000000
  0.039124  0.000000  0.000000      3.000000
  0.039124  0.039124  0.000000      3.000000
  0.039124  0.039124  0.039124      1.000000
 


--------------------------------------------------------------------------------------------------------




 Dimension of arrays:
   k-points           NKPTS =      4   k-points in BZ     NKDIM =      4   number of bands    NBANDS=    908
   number of dos      NEDOS =    301   number of ions     NIONS =    162
   non local maximal  LDIM  =      6   non local SUM 2l+1 LMDIM =     18
   total plane-waves  NPLWV = 262144
   max r-space proj   IRMAX =   1434   max aug-charges    IRDMAX=   4607
   dimension x,y,z NGX =    64 NGY =   64 NGZ =   64
   dimension x,y,z NGXF=   128 NGYF=  128 NGZF=  128
   support grid    NGXF=   128 NGYF=  128 NGZF=  128
   ions per type =             108  54
 NGX,Y,Z   is equivalent  to a cutoff of   8.33,  8.33,  8.33 a.u.
 NGXF,Y,Z  is equivalent  to a cutoff of  16.65, 16.65, 16.65 a.u.


 I would recommend the setting:
   dimension x,y,z NGX =    63 NGY =   63 NGZ =   63
 SYSTEM =  unknown system                          
 POSCAR =  Cu2 O                                   

 Startparameter for this run:
   NWRITE =      2    write-flag & timer
   PREC   = normal    normal or accurate (medium, high low for compatibility)
   ISTART =      0    job   : 0-new  1-cont  2-samecut
   ICHARG =      2    charge: 1-file 2-atom 10-const
   ISPIN  =      1    spin polarized calculation?
   LNONCOLLINEAR =      F non collinear calculations
   LSORBIT =      F    spin-orbit coupling
   INIWAV =      1    electr: 0-lowe 1-rand  2-diag
   LASPH  =      F    aspherical Exc in radial PAW
   METAGGA=      F    non-selfconsistent MetaGGA calc.

 Electronic Relaxation 1
   ENCUT  =  400.0 eV  29.40 Ry    5.42 a.u.  20.84 20.84 20.84*2*pi/ulx,y,z
   ENINI  =  400.0     initial cutoff
   ENAUG  =  605.4 eV  augmentation charge cutoff
   NELM   =     60;   NELMIN=  5; NELMDL= -5     # of ELM steps 
   EDIFF  = 0.1E-05   stopping-criterion for ELM
   LREAL  =      T    real-space projection
   NLSPLINE    = F    spline interpolate recip. space projectors
   LCOMPAT=      F    compatible to vasp.4.4
   GGA_COMPAT  = T    GGA compatible to vasp.4.4-vasp.4.6
   LMAXPAW     = -100 max onsite density
   LMAXMIX     =    2 max onsite mixed and CHGCAR
   VOSKOWN=      0    Vosko Wilk Nusair interpolation
   ROPT   =   -0.00050  -0.00050
 Ionic relaxation
   EDIFFG = -.5E-01   stopping-criterion for IOM
   NSW    =     50    number of steps for IOM
   NBLOCK =      1;   KBLOCK =     50    inner block; outer block 
   IBRION =      1    ionic relax: 0-MD 1-quasi-New 2-CG
   NFREE  =      0    steps in history (QN), initial steepest desc. (CG)
   ISIF   =      3    stress and relaxation
   IWAVPR =     11    prediction:  0-non 1-charg 2-wave 3-comb
   ISYM   =      2    0-nonsym 1-usesym 2-fastsym
   LCORR  =      T    Harris-Foulkes like correction to forces

   POTIM  = 0.5000    time-step for ionic-motion
   TEIN   =    0.0    initial temperature
   TEBEG  =    0.0;   TEEND  =   0.0 temperature during run
   SMASS  =  -3.00    Nose mass-parameter (am)
   estimated Nose-frequenzy (Omega)   =  0.10E-29 period in steps =****** mass=  -0.373E-26a.u.
   SCALEE = 1.0000    scale energy and forces
   NPACO  =    256;   APACO  = 16.0  distance and # of slots for P.C.
   PSTRESS=    0.0 pullay stress

  Mass of Ions in am
   POMASS =  63.55 16.00
  Ionic Valenz
   ZVAL   =  11.00  6.00
  Atomic Wigner-Seitz radii
   RWIGS  =  -1.00 -1.00
  virtual crystal weights 
   VCA    =   1.00  1.00
   NELECT =    1512.0000    total number of electrons
   NUPDOWN=      -1.0000    fix difference up-down

 DOS related values:
   EMIN   =  10.00;   EMAX   =-10.00  energy-range for DOS
   EFERMI =   0.00
   ISMEAR =     0;   SIGMA  =   0.10  broadening in eV -4-tet -1-fermi 0-gaus

 Electronic relaxation 2 (details)
   IALGO  =     68    algorithm
   LDIAG  =      T    sub-space diagonalisation (order eigenvalues)
   LSUBROT=      F    optimize rotation matrix (better conditioning)
   TURBO    =      0    0=normal 1=particle mesh
   IRESTART =      0    0=no restart 2=restart with 2 vectors
   NREBOOT  =      0    no. of reboots
   NMIN     =      0    reboot dimension
   EREF     =   0.00    reference energy to select bands
   IMIX   =      4    mixing-type and parameters
     AMIX     =   0.40;   BMIX     =  1.00
     AMIX_MAG =   1.60;   BMIX_MAG =  1.00
     AMIN     =   0.10
     WC   =   100.;   INIMIX=   1;  MIXPRE=   1;  MAXMIX=  80

 Intra band minimization:
   WEIMIN = 0.0010     energy-eigenvalue tresh-hold
   EBREAK =  0.28E-09  absolut break condition
   DEPER  =   0.30     relativ break condition  

   TIME   =   0.40     timestep for ELM

  volume/ion in A,a.u.               =      12.88        86.95
  Fermi-wavevector in a.u.,A,eV,Ry     =   1.470261  2.778391 29.411286  2.161669
  Thomas-Fermi vector in A             =   2.585539
 
 Write flags
   LWAVE  =      F    write WAVECAR
   LCHARG =      T    write CHGCAR
   LVTOT  =      F    write LOCPOT, total local potential
   LVHAR  =      F    write LOCPOT, Hartree potential only
   LELF   =      F    write electronic localiz. function (ELF)
   LORBIT =      0    0 simple, 1 ext, 2 COOP (PROOUT)


 Dipole corrections
   LMONO  =      F    monopole corrections only (constant potential shift)
   LDIPOL =      F    correct potential (dipole corrections)
   IDIPOL =      0    1-x, 2-y, 3-z, 4-all directions 
   EPSILON=  1.0000000 bulk dielectric constant

 Exchange correlation treatment:
   GGA     =    --    GGA type
   LEXCH   =     8    internal setting for exchange type
   VOSKOWN=      0    Vosko Wilk Nusair interpolation
   LHFCALC =     F    Hartree Fock is set to
   LHFONE  =     F    Hartree Fock one center treatment
   AEXX    =    0.0000 exact exchange contribution

 Linear response parameters
   LEPSILON=     F    determine dielectric tensor
   LRPA    =     F    only Hartree local field effects (RPA)
   LNABLA  =     F    use nabla operator in PAW spheres
   LVEL    =     F    velocity operator in full k-point grid
   LINTERFAST=   F  fast interpolation
   KINTER  =     0    interpolate to denser k-point grid
   CSHIFT  =0.1000    complex shift for real part using Kramers Kronig
   OMEGAMAX=  -1.0    maximum frequency
   DEG_THRESHOLD= 0.2000000E-02 threshold for treating states as degnerate
   RTIME   =    0.100 relaxation time in fs

 Orbital magnetization related:
   ORBITALMAG=     F  switch on orbital magnetization
   LCHIMAG   =     F  perturbation theory with respect to B field
   DQ        =  0.001000  dq finite difference perturbation B field



--------------------------------------------------------------------------------------------------------


 quasi-Newton-method for relaxation of ions
 charge density and potential will be updated during run
 non-spin polarized calculation
 RMM-DIIS sequential band-by-band and
  variant of blocked Davidson during initial phase
 perform sub-space diagonalisation
    before iterative eigenvector-optimisation
 modified Broyden-mixing scheme, WC =      100.0
 initial mixing is a Kerker type mixing with AMIX =  0.4000 and BMIX =      1.0000
 Hartree-type preconditioning will be used
 using additional bands          152
 real space projection scheme for non local part
 use partial core corrections
 calculate Harris-corrections to forces 
   (improved forces if not selfconsistent)
 use gradient corrections 
 use of overlap-Matrix (Vanderbilt PP)
 Gauss-broadening in eV      SIGMA  =   0.10


--------------------------------------------------------------------------------------------------------


  energy-cutoff  :      400.00
  volume of cell :     2087.34
      direct lattice vectors                 reciprocal lattice vectors
    12.780000687  0.000000000  0.000000000     0.078247257  0.000000000  0.000000000
     0.000000000 12.780000687  0.000000000     0.000000000  0.078247257  0.000000000
     0.000000000  0.000000000 12.780000687     0.000000000  0.000000000  0.078247257

  length of vectors
    12.780000687 12.780000687 12.780000687     0.078247257  0.078247257  0.078247257


 
 k-points in units of 2pi/SCALE and weight: k-density: 4.0                          
   0.00000000  0.00000000  0.00000000       0.125
   0.03912363  0.00000000  0.00000000       0.375
   0.03912363  0.03912363  0.00000000       0.375
   0.03912363  0.03912363  0.03912363       0.125
 
 k-points in reciprocal lattice and weights: k-density: 4.0                          
   0.00000000  0.00000000  0.00000000       0.125
   0.50000000  0.00000000  0.00000000       0.375
   0.50000000  0.50000000  0.00000000       0.375
   0.50000000  0.50000000  0.50000000       0.125
 
 position of ions in fractional coordinates (direct lattice) 
   0.08333334  0.08333334  0.08333334
   0.91666669  0.91666669  0.08333334
   0.91666669  0.08333334  0.91666669
   0.08333334  0.91666669  0.91666669
   0.25000000  0.25000000  0.08333333
   0.25000000  0.08333333  0.25000000
   0.08333333  0.25000000  0.25000000
   0.08333334  0.08333334  0.41666666
   0.91666669  0.91666669  0.41666666
   0.91666669  0.08333334  0.58333331
   0.08333334  0.91666669  0.58333331
   0.41666666  0.08333334  0.08333334
   0.41666666  0.91666669  0.91666669
   0.58333331  0.91666669  0.08333334
   0.58333331  0.08333334  0.91666669
   0.08333334  0.41666666  0.08333334
   0.91666669  0.41666666  0.91666669
   0.08333334  0.58333331  0.91666669
   0.91666669  0.58333331  0.08333334
   0.25000000  0.25000000  0.75000000
   0.08333333  0.08333333  0.75000000
   0.25000000  0.08333333  0.58333331
   0.08333333  0.25000000  0.58333331
   0.25000000  0.58333331  0.08333333
   0.08333333  0.58333331  0.25000000
   0.08333333  0.75000000  0.08333333
   0.25000000  0.75000000  0.25000000
   0.58333331  0.25000000  0.08333333
   0.58333331  0.08333333  0.25000000
   0.75000000  0.25000000  0.25000000
   0.75000000  0.08333333  0.08333333
   0.91666669  0.91666669  0.75000000
   0.91666669  0.08333334  0.25000000
   0.08333334  0.91666669  0.25000000
   0.75000000  0.91666669  0.91666669
   0.25000000  0.91666669  0.08333334
   0.25000000  0.08333334  0.91666669
   0.91666669  0.75000000  0.91666669
   0.08333334  0.25000000  0.91666669
   0.91666669  0.25000000  0.08333334
   0.25000000  0.25000000  0.41666666
   0.25000000  0.41666666  0.25000000
   0.41666666  0.25000000  0.25000000
   0.08333334  0.41666666  0.41666666
   0.91666669  0.58333331  0.41666666
   0.91666669  0.41666666  0.58333331
   0.08333334  0.58333331  0.58333331
   0.41666666  0.08333334  0.41666666
   0.41666666  0.91666669  0.58333331
   0.58333331  0.91666669  0.41666666
   0.58333331  0.08333334  0.58333331
   0.41666666  0.41666666  0.08333334
   0.58333331  0.41666666  0.91666669
   0.41666666  0.58333331  0.91666669
   0.58333331  0.58333331  0.08333334
   0.58333331  0.25000000  0.75000000
   0.75000000  0.08333333  0.75000000
   0.75000000  0.25000000  0.58333331
   0.25000000  0.58333331  0.75000000
   0.08333333  0.75000000  0.75000000
   0.25000000  0.75000000  0.58333331
   0.58333331  0.75000000  0.25000000
   0.75000000  0.58333331  0.25000000
   0.75000000  0.75000000  0.08333333
   0.08333334  0.41666666  0.75000000
   0.91666669  0.58333331  0.75000000
   0.91666669  0.41666666  0.25000000
   0.75000000  0.08333334  0.41666666
   0.75000000  0.91666669  0.58333331
   0.25000000  0.91666669  0.41666666
   0.41666666  0.75000000  0.08333334
   0.58333331  0.75000000  0.91666669
   0.41666666  0.25000000  0.91666669
   0.58333331  0.25000000  0.41666666
   0.75000000  0.25000000  0.91666669
   0.25000000  0.91666669  0.75000000
   0.25000000  0.41666666  0.58333331
   0.91666669  0.75000000  0.25000000
   0.41666666  0.58333331  0.25000000
   0.08333333  0.75000000  0.41666666
   0.25000000  0.58333331  0.41666666
   0.25000000  0.75000000  0.91666669
   0.41666666  0.08333333  0.75000000
   0.41666666  0.25000000  0.58333331
   0.91666669  0.25000000  0.75000000
   0.75000000  0.41666666  0.08333333
   0.58333331  0.41666666  0.25000000
   0.75000000  0.91666669  0.25000000
   0.58333331  0.91666669  0.75000000
   0.41666666  0.91666669  0.25000000
   0.91666669  0.25000000  0.41666666
   0.91666669  0.75000000  0.58333331
   0.25000000  0.41666666  0.91666669
   0.75000000  0.58333331  0.91666669
   0.41666666  0.41666666  0.41666666
   0.58333331  0.58333331  0.41666666
   0.58333331  0.41666666  0.58333331
   0.41666666  0.58333331  0.58333331
   0.58333331  0.58333331  0.75000000
   0.75000000  0.75000000  0.75000000
   0.58333331  0.75000000  0.58333331
   0.75000000  0.58333331  0.58333331
   0.41666666  0.41666666  0.75000000
   0.75000000  0.41666666  0.41666666
   0.41666666  0.75000000  0.41666666
   0.75000000  0.75000000  0.41666666
   0.75000000  0.41666666  0.75000000
   0.41666666  0.75000000  0.75000000
   0.00000000  0.00000000  0.00000000
   0.16666667  0.16666667  0.16666667
   0.00000000  0.00000000  0.33333334
   0.00000000  0.00000000  0.66666669
   0.33333334  0.00000000  0.00000000
   0.66666669  0.00000000  0.00000000
   0.00000000  0.33333334  0.00000000
   0.00000000  0.66666669  0.00000000
   0.16666667  0.16666667  0.83333331
   0.16666667  0.16666667  0.50000000
   0.16666667  0.50000000  0.16666667
   0.16666667  0.83333331  0.16666667
   0.50000000  0.16666667  0.16666667
   0.83333331  0.16666667  0.16666667
   0.00000000  0.33333334  0.33333334
   0.00000000  0.66666669  0.33333334
   0.00000000  0.33333334  0.66666669
   0.00000000  0.66666669  0.66666669
   0.33333334  0.00000000  0.33333334
   0.33333334  0.00000000  0.66666669
   0.66666669  0.00000000  0.33333334
   0.66666669  0.00000000  0.66666669
   0.33333334  0.33333334  0.00000000
   0.66666669  0.33333334  0.00000000
   0.33333334  0.66666669  0.00000000
   0.66666669  0.66666669  0.00000000
   0.50000000  0.16666667  0.83333331
   0.83333331  0.16666667  0.83333331
   0.50000000  0.16666667  0.50000000
   0.83333331  0.16666667  0.50000000
   0.16666667  0.50000000  0.83333331
   0.16666667  0.50000000  0.50000000
   0.16666667  0.83333331  0.83333331
   0.16666667  0.83333331  0.50000000
   0.50000000  0.50000000  0.16666667
   0.50000000  0.83333331  0.16666667
   0.83333331  0.50000000  0.16666667
   0.83333331  0.83333331  0.16666667
   0.33333334  0.33333334  0.33333334
   0.66666669  0.66666669  0.33333334
   0.66666669  0.33333334  0.66666669
   0.33333334  0.66666669  0.66666669
   0.50000000  0.50000000  0.83333331
   0.83333331  0.83333331  0.83333331
   0.50000000  0.83333331  0.50000000
   0.83333331  0.50000000  0.50000000
   0.33333334  0.33333334  0.66666669
   0.66666669  0.66666669  0.66666669
   0.66666669  0.33333334  0.33333334
   0.33333334  0.66666669  0.33333334
   0.50000000  0.50000000  0.50000000
   0.83333331  0.83333331  0.50000000
   0.50000000  0.83333331  0.83333331
   0.83333331  0.50000000  0.83333331
 
 position of ions in cartesian coordinates  (Angst):
   1.06500009  1.06500009  1.06500009
  11.71500089 11.71500089  1.06500009
  11.71500089  1.06500009 11.71500089
   1.06500009 11.71500089 11.71500089
   3.19500017  3.19500017  1.06499999
   3.19500017  1.06499999  3.19500017
   1.06499999  3.19500017  3.19500017
   1.06500009  1.06500009  5.32500016
  11.71500089 11.71500089  5.32500016
  11.71500089  1.06500009  7.45500014
   1.06500009 11.71500089  7.45500014
   5.32500016  1.06500009  1.06500009
   5.32500016 11.71500089 11.71500089
   7.45500014 11.71500089  1.06500009
   7.45500014  1.06500009 11.71500089
   1.06500009  5.32500016  1.06500009
  11.71500089  5.32500016 11.71500089
   1.06500009  7.45500014 11.71500089
  11.71500089  7.45500014  1.06500009
   3.19500017  3.19500017  9.58500051
   1.06499999  1.06499999  9.58500051
   3.19500017  1.06499999  7.45500014
   1.06499999  3.19500017  7.45500014
   3.19500017  7.45500014  1.06499999
   1.06499999  7.45500014  3.19500017
   1.06499999  9.58500051  1.06499999
   3.19500017  9.58500051  3.19500017
   7.45500014  3.19500017  1.06499999
   7.45500014  1.06499999  3.19500017
   9.58500051  3.19500017  3.19500017
   9.58500051  1.06499999  1.06499999
  11.71500089 11.71500089  9.58500051
  11.71500089  1.06500009  3.19500017
   1.06500009 11.71500089  3.19500017
   9.58500051 11.71500089 11.71500089
   3.19500017 11.71500089  1.06500009
   3.19500017  1.06500009 11.71500089
  11.71500089  9.58500051 11.71500089
   1.06500009  3.19500017 11.71500089
  11.71500089  3.19500017  1.06500009
   3.19500017  3.19500017  5.32500016
   3.19500017  5.32500016  3.19500017
   5.32500016  3.19500017  3.19500017
   1.06500009  5.32500016  5.32500016
  11.71500089  7.45500014  5.32500016
  11.71500089  5.32500016  7.45500014
   1.06500009  7.45500014  7.45500014
   5.32500016  1.06500009  5.32500016
   5.32500016 11.71500089  7.45500014
   7.45500014 11.71500089  5.32500016
   7.45500014  1.06500009  7.45500014
   5.32500016  5.32500016  1.06500009
   7.45500014  5.32500016 11.71500089
   5.32500016  7.45500014 11.71500089
   7.45500014  7.45500014  1.06500009
   7.45500014  3.19500017  9.58500051
   9.58500051  1.06499999  9.58500051
   9.58500051  3.19500017  7.45500014
   3.19500017  7.45500014  9.58500051
   1.06499999  9.58500051  9.58500051
   3.19500017  9.58500051  7.45500014
   7.45500014  9.58500051  3.19500017
   9.58500051  7.45500014  3.19500017
   9.58500051  9.58500051  1.06499999
   1.06500009  5.32500016  9.58500051
  11.71500089  7.45500014  9.58500051
  11.71500089  5.32500016  3.19500017
   9.58500051  1.06500009  5.32500016
   9.58500051 11.71500089  7.45500014
   3.19500017 11.71500089  5.32500016
   5.32500016  9.58500051  1.06500009
   7.45500014  9.58500051 11.71500089
   5.32500016  3.19500017 11.71500089
   7.45500014  3.19500017  5.32500016
   9.58500051  3.19500017 11.71500089
   3.19500017 11.71500089  9.58500051
   3.19500017  5.32500016  7.45500014
  11.71500089  9.58500051  3.19500017
   5.32500016  7.45500014  3.19500017
   1.06499999  9.58500051  5.32500016
   3.19500017  7.45500014  5.32500016
   3.19500017  9.58500051 11.71500089
   5.32500016  1.06499999  9.58500051
   5.32500016  3.19500017  7.45500014
  11.71500089  3.19500017  9.58500051
   9.58500051  5.32500016  1.06499999
   7.45500014  5.32500016  3.19500017
   9.58500051 11.71500089  3.19500017
   7.45500014 11.71500089  9.58500051
   5.32500016 11.71500089  3.19500017
  11.71500089  3.19500017  5.32500016
  11.71500089  9.58500051  7.45500014
   3.19500017  5.32500016 11.71500089
   9.58500051  7.45500014 11.71500089
   5.32500016  5.32500016  5.32500016
   7.45500014  7.45500014  5.32500016
   7.45500014  5.32500016  7.45500014
   5.32500016  7.45500014  7.45500014
   7.45500014  7.45500014  9.58500051
   9.58500051  9.58500051  9.58500051
   7.45500014  9.58500051  7.45500014
   9.58500051  7.45500014  7.45500014
   5.32500016  5.32500016  9.58500051
   9.58500051  5.32500016  5.32500016
   5.32500016  9.58500051  5.32500016
   9.58500051  9.58500051  5.32500016
   9.58500051  5.32500016  9.58500051
   5.32500016  9.58500051  9.58500051
   0.00000000  0.00000000  0.00000000
   2.13000018  2.13000018  2.13000018
   0.00000000  0.00000000  4.26000035
   0.00000000  0.00000000  8.52000072
   4.26000035  0.00000000  0.00000000
   8.52000072  0.00000000  0.00000000
   0.00000000  4.26000035  0.00000000
   0.00000000  8.52000072  0.00000000
   2.13000018  2.13000018 10.65000031
   2.13000018  2.13000018  6.39000034
   2.13000018  6.39000034  2.13000018
   2.13000018 10.65000031  2.13000018
   6.39000034  2.13000018  2.13000018
  10.65000031  2.13000018  2.13000018
   0.00000000  4.26000035  4.26000035
   0.00000000  8.52000072  4.26000035
   0.00000000  4.26000035  8.52000072
   0.00000000  8.52000072  8.52000072
   4.26000035  0.00000000  4.26000035
   4.26000035  0.00000000  8.52000072
   8.52000072  0.00000000  4.26000035
   8.52000072  0.00000000  8.52000072
   4.26000035  4.26000035  0.00000000
   8.52000072  4.26000035  0.00000000
   4.26000035  8.52000072  0.00000000
   8.52000072  8.52000072  0.00000000
   6.39000034  2.13000018 10.65000031
  10.65000031  2.13000018 10.65000031
   6.39000034  2.13000018  6.39000034
  10.65000031  2.13000018  6.39000034
   2.13000018  6.39000034 10.65000031
   2.13000018  6.39000034  6.39000034
   2.13000018 10.65000031 10.65000031
   2.13000018 10.65000031  6.39000034
   6.39000034  6.39000034  2.13000018
   6.39000034 10.65000031  2.13000018
  10.65000031  6.39000034  2.13000018
  10.65000031 10.65000031  2.13000018
   4.26000035  4.26000035  4.26000035
   8.52000072  8.52000072  4.26000035
   8.52000072  4.26000035  8.52000072
   4.26000035  8.52000072  8.52000072
   6.39000034  6.39000034 10.65000031
  10.65000031 10.65000031 10.65000031
   6.39000034 10.65000031  6.39000034
  10.65000031  6.39000034  6.39000034
   4.26000035  4.26000035  8.52000072
   8.52000072  8.52000072  8.52000072
   8.52000072  4.26000035  4.26000035
   4.26000035  8.52000072  4.26000035
   6.39000034  6.39000034  6.39000034
  10.65000031 10.65000031  6.39000034
   6.39000034 10.65000031 10.65000031
  10.65000031  6.39000034 10.65000031
 


--------------------------------------------------------------------------------------------------------


 k-point  1 :   0.0000 0.0000 0.0000  plane waves:   37993
 k-point  2 :   0.5000 0.0000 0.0000  plane waves:   37962
 k-point  3 :   0.5000 0.5000 0.0000  plane waves:   37852
 k-point  4 :   0.5000 0.5000 0.5000  plane waves:   37752

 maximum and minimum number of plane-waves per node :      4782     4706

 maximum number of plane-waves:     37993
 maximum index in each direction: 
   IXMAX=   20   IYMAX=   20   IZMAX=   20
   IXMIN=  -21   IYMIN=  -21   IZMIN=  -21

 WARNING: aliasing errors must be expected set NGX to  84 to avoid them
 WARNING: aliasing errors must be expected set NGY to  84 to avoid them
 WARNING: aliasing errors must be expected set NGZ to  84 to avoid them
 aliasing errors are usually negligible using standard VASP settings
 and one can safely disregard these warnings

 real space projection operators:
  total allocation   :      24213.44 KBytes
  max/ min on nodes  :       3081.19       2965.88


 parallel 3D FFT for wavefunctions:
    minimum data exchange during FFTs selected (reduces bandwidth)
 parallel 3D FFT for charge:
    minimum data exchange during FFTs selected (reduces bandwidth)


 total amount of memory used by VASP on root node   119981. kBytes
========================================================================

   base      :      30000. kBytes
   nonlr-proj:       7634. kBytes
   fftplans  :       3248. kBytes
   grid      :       5029. kBytes
   one-center:        326. kBytes
   wavefun   :      73744. kBytes
 
     INWAV:  cpu time    0.0000: real time    0.0000
 Broyden mixing: mesh for mixing (old mesh)
   NGX = 41   NGY = 41   NGZ = 41
  (NGX  =128   NGY  =128   NGZ  =128)
  gives a total of  68921 points

 initial charge density was supplied:
 charge density of overlapping atoms calculated
 number of electron    1512.0000000 magnetization 
 keeping initial charge density in first step


--------------------------------------------------------------------------------------------------------


 Maximum index for non-local projection operator          184
 Maximum index for augmentation-charges          325 (set IRDMAX)


--------------------------------------------------------------------------------------------------------


 First call to EWALD:  gamma=   0.139
 Maximum number of real-space cells 3x 3x 3
 Maximum number of reciprocal cells 3x 3x 3

 FEWALD executed in parallel
    FEWALD:  cpu time    0.0070: real time    0.0062


----------------------------------------- Iteration    1(   1)  ---------------------------------------


    POTLOK:  cpu time    0.0600: real time    0.0625
    SETDIJ:  cpu time    0.0150: real time    0.0144
     EDDAV:  cpu time   44.1863: real time   44.1803
       DOS:  cpu time    0.0030: real time    0.0025
    --------------------------------------------
      LOOP:  cpu time   44.2683: real time   44.2883

 eigenvalue-minimisations  :  7264
 total energy-change (2. order) : 0.1598777E+05  (-0.5505119E+05)
 number of electron    1512.0000000 magnetization 
 augmentation part     1512.0000000 magnetization 

 Free energy of the ion-electron system (eV)
  ---------------------------------------------------
  alpha Z        PSCENC =      9992.18267556
  Ewald energy   TEWEN  =   -122881.33495203
  -Hartree energ DENC   =    -50368.84895901
  -exchange      EXHF   =         0.00000000
  -V(xc)+E(xc)   XCENC  =      6198.19958033
  PAW double counting   =    130145.56131649  -145800.11349439
  entropy T*S    EENTRO =        -0.07251211
  eigenvalues    EBANDS =     15135.40491895
  atomic energy  EATOM  =    173566.79152315
  Solvation  Ediel_sol  =         0.00000000
  ---------------------------------------------------
  free energy    TOTEN  =     15987.77009694 eV

  energy without entropy =    15987.84260905  energy(sigma->0) =    15987.80635299


--------------------------------------------------------------------------------------------------------




----------------------------------------- Iteration    1(   2)  ---------------------------------------


     EDDAV:  cpu time   43.6034: real time   43.5968
       DOS:  cpu time    0.0030: real time    0.0029
    --------------------------------------------
      LOOP:  cpu time   43.6074: real time   43.6050

 eigenvalue-minimisations  :  7264
 total energy-change (2. order) :-0.1309964E+05  (-0.1240367E+05)
 number of electron    1512.0000000 magnetization 
 augmentation part     1512.0000000 magnetization 

 Free energy of the ion-electron system (eV)
  ---------------------------------------------------
  alpha Z        PSCENC =      9992.18267556
  Ewald energy   TEWEN  =   -122881.33495203
  -Hartree energ DENC   =    -50368.84895901
  -exchange      EXHF   =         0.00000000
  -V(xc)+E(xc)   XCENC  =      6198.19958033
  PAW double counting   =    130145.56131649  -145800.11349439
  entropy T*S    EENTRO =        -0.16913354
  eigenvalues    EBANDS =      2035.85674800
  atomic energy  EATOM  =    173566.79152315
  Solvation  Ediel_sol  =         0.00000000
  ---------------------------------------------------
  free energy    TOTEN  =      2888.12530456 eV

  energy without entropy =     2888.29443810  energy(sigma->0) =     2888.20987133


--------------------------------------------------------------------------------------------------------




----------------------------------------- Iteration    1(   3)  ---------------------------------------


     EDDAV:  cpu time   44.2923: real time   44.2862
       DOS:  cpu time    0.0030: real time    0.0029
    --------------------------------------------
      LOOP:  cpu time   44.2963: real time   44.2944

 eigenvalue-minimisations  :  7352
 total energy-change (2. order) :-0.3245140E+04  (-0.3006180E+04)
 number of electron    1512.0000000 magnetization 
 augmentation part     1512.0000000 magnetization 

 Free energy of the ion-electron system (eV)
  ---------------------------------------------------
  alpha Z        PSCENC =      9992.18267556
  Ewald energy   TEWEN  =   -122881.33495203
  -Hartree energ DENC   =    -50368.84895901
  -exchange      EXHF   =         0.00000000
  -V(xc)+E(xc)   XCENC  =      6198.19958033
  PAW double counting   =    130145.56131649  -145800.11349439
  entropy T*S    EENTRO =        -0.04783584
  eigenvalues    EBANDS =     -1209.40454102
  atomic energy  EATOM  =    173566.79152315
  Solvation  Ediel_sol  =         0.00000000
  ---------------------------------------------------
  free energy    TOTEN  =      -357.01468677 eV

  energy without entropy =     -356.96685093  energy(sigma->0) =     -356.99076885


--------------------------------------------------------------------------------------------------------




----------------------------------------- Iteration    1(   4)  ---------------------------------------


     EDDAV:  cpu time   44.3673: real time   44.3607
       DOS:  cpu time    0.0030: real time    0.0028
    --------------------------------------------
      LOOP:  cpu time   44.3723: real time   44.3686

 eigenvalue-minimisations  :  7876
 total energy-change (2. order) :-0.5165721E+03  (-0.4935295E+03)
 number of electron    1512.0000000 magnetization 
 augmentation part     1512.0000000 magnetization 

 Free energy of the ion-electron system (eV)
  ---------------------------------------------------
  alpha Z        PSCENC =      9992.18267556
  Ewald energy   TEWEN  =   -122881.33495203
  -Hartree energ DENC   =    -50368.84895901
  -exchange      EXHF   =         0.00000000
  -V(xc)+E(xc)   XCENC  =      6198.19958033
  PAW double counting   =    130145.56131649  -145800.11349439
  entropy T*S    EENTRO =        -0.02640473
  eigenvalues    EBANDS =     -1725.99810137
  atomic energy  EATOM  =    173566.79152315
  Solvation  Ediel_sol  =         0.00000000
  ---------------------------------------------------
  free energy    TOTEN  =      -873.58681601 eV

  energy without entropy =     -873.56041127  energy(sigma->0) =     -873.57361364


--------------------------------------------------------------------------------------------------------




----------------------------------------- Iteration    1(   5)  ---------------------------------------


     EDDAV:  cpu time   43.7803: real time   43.7749
       DOS:  cpu time    0.0030: real time    0.0029
    CHARGE:  cpu time    0.6829: real time    0.6827
    MIXING:  cpu time    0.0020: real time    0.0016
    --------------------------------------------
      LOOP:  cpu time   44.4682: real time   44.4671

 eigenvalue-minimisations  :  7776
 total energy-change (2. order) :-0.2295074E+02  (-0.2258634E+02)
 number of electron    1512.0000070 magnetization 
 augmentation part      771.2179163 magnetization 

 Broyden mixing:
  rms(total) = 0.89053E+01    rms(broyden)= 0.88962E+01
  rms(prec ) = 0.10737E+02
  weight for this iteration     100.00

 Free energy of the ion-electron system (eV)
  ---------------------------------------------------
  alpha Z        PSCENC =      9992.18267556
  Ewald energy   TEWEN  =   -122881.33495203
  -Hartree energ DENC   =    -50368.84895901
  -exchange      EXHF   =         0.00000000
  -V(xc)+E(xc)   XCENC  =      6198.19958033
  PAW double counting   =    130145.56131649  -145800.11349439
  entropy T*S    EENTRO =        -0.02451878
  eigenvalues    EBANDS =     -1748.95072854
  atomic energy  EATOM  =    173566.79152315
  Solvation  Ediel_sol  =         0.00000000
  ---------------------------------------------------
  free energy    TOTEN  =      -896.53755722 eV

  energy without entropy =     -896.51303844  energy(sigma->0) =     -896.52529783


--------------------------------------------------------------------------------------------------------




----------------------------------------- Iteration    1(   6)  ---------------------------------------


    POTLOK:  cpu time    0.0560: real time    0.0567
    SETDIJ:  cpu time    0.0160: real time    0.0151
    EDDIAG:  cpu time    9.7145: real time    9.7141
  RMM-DIIS:  cpu time    7.7248: real time    7.7225
    ORTHCH:  cpu time    2.7306: real time    2.7304
       DOS:  cpu time    0.0030: real time    0.0029
    CHARGE:  cpu time    0.6839: real time    0.6837
    MIXING:  cpu time    0.0020: real time    0.0018
    --------------------------------------------
      LOOP:  cpu time   20.9318: real time   20.9329

 eigenvalue-minimisations  :  7265
 total energy-change (2. order) : 0.7409473E+02  (-0.1580143E+03)
 number of electron    1512.0000083 magnetization 
 augmentation part      857.6324462 magnetization 

 Broyden mixing:
  rms(total) = 0.55484E+01    rms(broyden)= 0.55415E+01
  rms(prec ) = 0.64440E+01
  weight for this iteration     100.00

 eigenvalues of (default mixing * dielectric matrix)
  average eigenvalue GAMMA=   0.6214
  0.6214

 Free energy of the ion-electron system (eV)
  ---------------------------------------------------
  alpha Z        PSCENC =      9992.18267556
  Ewald energy   TEWEN  =   -122881.33495203
  -Hartree energ DENC   =    -48379.24840032
  -exchange      EXHF   =         0.00000000
  -V(xc)+E(xc)   XCENC  =      6122.77172748
  PAW double counting   =    128623.44623045  -143377.53167225
  entropy T*S    EENTRO =        -0.00001278
  eigenvalues    EBANDS =     -4489.51994638
  atomic energy  EATOM  =    173566.79152315
  Solvation  Ediel_sol  =         0.00000000
  ---------------------------------------------------
  free energy    TOTEN  =      -822.44282711 eV

  energy without entropy =     -822.44281434  energy(sigma->0) =     -822.44282073


--------------------------------------------------------------------------------------------------------




----------------------------------------- Iteration    1(   7)  ---------------------------------------


    POTLOK:  cpu time    0.0570: real time    0.0568
    SETDIJ:  cpu time    0.0150: real time    0.0151
    EDDIAG:  cpu time    9.3666: real time    9.3655
  RMM-DIIS:  cpu time    7.7278: real time    7.7262
    ORTHCH:  cpu time    2.7346: real time    2.7344
       DOS:  cpu time    0.0030: real time    0.0027
    CHARGE:  cpu time    0.6869: real time    0.6867
    MIXING:  cpu time    0.0010: real time    0.0016
    --------------------------------------------
      LOOP:  cpu time   20.5919: real time   20.5947

 eigenvalue-minimisations  :  7265
 total energy-change (2. order) : 0.8626372E+02  (-0.2973632E+02)
 number of electron    1512.0000079 magnetization 
 augmentation part      813.9695599 magnetization 

 Broyden mixing:
  rms(total) = 0.13948E+01    rms(broyden)= 0.13920E+01
  rms(prec ) = 0.15027E+01
  weight for this iteration     100.00

 eigenvalues of (default mixing * dielectric matrix)
  average eigenvalue GAMMA=   0.6457
  0.6457  0.6457

 Free energy of the ion-electron system (eV)
  ---------------------------------------------------
  alpha Z        PSCENC =      9992.18267556
  Ewald energy   TEWEN  =   -122881.33495203
  -Hartree energ DENC   =    -49462.94767766
  -exchange      EXHF   =         0.00000000
  -V(xc)+E(xc)   XCENC  =      6171.23601016
  PAW double counting   =    131856.58927229  -147418.19389621
  entropy T*S    EENTRO =        -0.00004615
  eigenvalues    EBANDS =     -2560.50201544
  atomic energy  EATOM  =    173566.79152315
  Solvation  Ediel_sol  =         0.00000000
  ---------------------------------------------------
  free energy    TOTEN  =      -736.17910633 eV

  energy without entropy =     -736.17906018  energy(sigma->0) =     -736.17908326


--------------------------------------------------------------------------------------------------------




----------------------------------------- Iteration    1(   8)  ---------------------------------------


    POTLOK:  cpu time    0.0570: real time    0.0567
    SETDIJ:  cpu time    0.0150: real time    0.0151
    EDDIAG:  cpu time    9.2736: real time    9.2718
  RMM-DIIS:  cpu time    7.8578: real time    7.8571
    ORTHCH:  cpu time    2.7396: real time    2.7391
       DOS:  cpu time    0.0020: real time    0.0025
    CHARGE:  cpu time    0.6849: real time    0.6844
    MIXING:  cpu time    0.0020: real time    0.0017
    --------------------------------------------
      LOOP:  cpu time   20.6329: real time   20.6340

 eigenvalue-minimisations  :  7389
 total energy-change (2. order) : 0.1288351E+01  (-0.2597991E+00)
 number of electron    1512.0000078 magnetization 
 augmentation part      815.4956657 magnetization 

 Broyden mixing:
  rms(total) = 0.85130E+00    rms(broyden)= 0.85120E+00
  rms(prec ) = 0.91976E+00
  weight for this iteration     100.00

 eigenvalues of (default mixing * dielectric matrix)
  average eigenvalue GAMMA=   1.2823
  0.6456  0.8000  2.4014

 Free energy of the ion-electron system (eV)
  ---------------------------------------------------
  alpha Z        PSCENC =      9992.18267556
  Ewald energy   TEWEN  =   -122881.33495203
  -Hartree energ DENC   =    -49312.12780164
  -exchange      EXHF   =         0.00000000
  -V(xc)+E(xc)   XCENC  =      6162.98029886
  PAW double counting   =    132618.73593582  -148257.49556350
  entropy T*S    EENTRO =        -0.00005815
  eigenvalues    EBANDS =     -2624.62281321
  atomic energy  EATOM  =    173566.79152315
  Solvation  Ediel_sol  =         0.00000000
  ---------------------------------------------------
  free energy    TOTEN  =      -734.89075514 eV

  energy without entropy =     -734.89069699  energy(sigma->0) =     -734.89072607


--------------------------------------------------------------------------------------------------------




----------------------------------------- Iteration    1(   9)  ---------------------------------------


    POTLOK:  cpu time    0.0560: real time    0.0568
    SETDIJ:  cpu time    0.0150: real time    0.0150
    EDDIAG:  cpu time    9.2366: real time    9.2346
  RMM-DIIS:  cpu time    7.8468: real time    7.8460
    ORTHCH:  cpu time    2.7366: real time    2.7359
       DOS:  cpu time    0.0030: real time    0.0025
    CHARGE:  cpu time    0.6849: real time    0.6855
    MIXING:  cpu time    0.0020: real time    0.0019
    --------------------------------------------
      LOOP:  cpu time   20.5819: real time   20.5828

 eigenvalue-minimisations  :  7366
 total energy-change (2. order) : 0.6565076E+00  (-0.1754469E+00)
 number of electron    1512.0000078 magnetization 
 augmentation part      813.9608011 magnetization 

 Broyden mixing:
  rms(total) = 0.23891E+00    rms(broyden)= 0.23870E+00
  rms(prec ) = 0.27830E+00
  weight for this iteration     100.00

 eigenvalues of (default mixing * dielectric matrix)
  average eigenvalue GAMMA=   1.2268
  2.4694  0.6139  0.9118  0.9118

 Free energy of the ion-electron system (eV)
  ---------------------------------------------------
  alpha Z        PSCENC =      9992.18267556
  Ewald energy   TEWEN  =   -122881.33495203
  -Hartree energ DENC   =    -49149.25185623
  -exchange      EXHF   =         0.00000000
  -V(xc)+E(xc)   XCENC  =      6154.05696655
  PAW double counting   =    134926.26244295  -150779.58940478
  entropy T*S    EENTRO =        -0.00004030
  eigenvalues    EBANDS =     -2563.35160245
  atomic energy  EATOM  =    173566.79152315
  Solvation  Ediel_sol  =         0.00000000
  ---------------------------------------------------
  free energy    TOTEN  =      -734.23424758 eV

  energy without entropy =     -734.23420728  energy(sigma->0) =     -734.23422743


--------------------------------------------------------------------------------------------------------




----------------------------------------- Iteration    1(  10)  ---------------------------------------


    POTLOK:  cpu time    0.0570: real time    0.0567
    SETDIJ:  cpu time    0.0150: real time    0.0151
    EDDIAG:  cpu time    9.1906: real time    9.1906
  RMM-DIIS:  cpu time    7.7228: real time    7.7210
    ORTHCH:  cpu time    2.7406: real time    2.7395
       DOS:  cpu time    0.0020: real time    0.0026
    CHARGE:  cpu time    0.6839: real time    0.6833
    MIXING:  cpu time    0.0020: real time    0.0020
    --------------------------------------------
      LOOP:  cpu time   20.4149: real time   20.4157

 eigenvalue-minimisations  :  7264
 total energy-change (2. order) : 0.1007326E+00  (-0.3991631E-01)
 number of electron    1512.0000078 magnetization 
 augmentation part      815.7196312 magnetization 

 Broyden mixing:
  rms(total) = 0.28057E-01    rms(broyden)= 0.27771E-01
  rms(prec ) = 0.30646E-01
  weight for this iteration     100.00

 eigenvalues of (default mixing * dielectric matrix)
  average eigenvalue GAMMA=   1.5790
  2.8220  2.6634  0.8980  0.8980  0.6137

 Free energy of the ion-electron system (eV)
  ---------------------------------------------------
[...]
   0.130E-03 0.135E-03 0.315E-04   0.137E-04 -.336E-04 0.589E-04   -.451E-20 -.254E-20 0.169E-20   0.109E-04 -.238E-04 0.988E-05
   0.135E-03 0.315E-04 0.130E-03   -.336E-04 0.589E-04 0.137E-04   -.424E-20 -.195E-19 0.372E-20   -.238E-04 0.988E-05 0.109E-04
   0.249E-03 -.424E-04 -.411E-04   -.299E-04 0.596E-04 0.576E-04   -.720E-20 -.858E-20 -.200E-19   -.586E-04 0.129E-04 0.129E-04
   -.708E-04 0.341E-03 0.341E-03   -.307E-04 0.300E-05 0.384E-05   -.508E-20 -.388E-20 0.632E-21   0.945E-05 -.226E-04 -.226E-04
   0.136E-03 0.140E-03 0.416E-04   -.352E-04 -.160E-05 0.435E-04   -.762E-20 0.176E-19 -.847E-21   -.238E-04 0.109E-04 0.987E-05
   -.424E-04 -.411E-04 0.249E-03   0.596E-04 0.576E-04 -.299E-04   0.201E-20 -.222E-20 -.395E-19   0.129E-04 0.129E-04 -.586E-04
   0.315E-04 0.130E-03 0.135E-03   0.589E-04 0.137E-04 -.336E-04   -.238E-28 -.134E-20 0.203E-19   0.988E-05 0.109E-04 -.238E-04
   0.140E-03 0.416E-04 0.136E-03   -.160E-05 0.435E-04 -.352E-04   0.569E-21 -.161E-19 -.152E-19   0.109E-04 0.987E-05 -.238E-04
   0.341E-03 0.341E-03 -.708E-04   0.300E-05 0.384E-05 -.307E-04   -.141E-20 -.250E-20 -.424E-20   -.226E-04 -.226E-04 0.945E-05
   -.142E-03 -.142E-03 -.142E-03   -.256E-04 -.256E-04 -.256E-04   -.322E-20 -.417E-21 0.285E-19   -.139E-04 -.139E-04 -.139E-04
   -.318E-03 -.317E-03 -.143E-03   -.295E-04 -.302E-04 -.234E-04   0.339E-20 -.762E-20 -.238E-19   0.263E-04 0.263E-04 -.134E-04
   -.317E-03 -.143E-03 -.318E-03   -.302E-04 -.234E-04 -.295E-04   0.254E-20 -.212E-20 0.678E-20   0.263E-04 -.134E-04 0.263E-04
   -.143E-03 -.318E-03 -.318E-03   -.234E-04 -.295E-04 -.302E-04   0.328E-20 -.110E-19 -.847E-20   -.134E-04 0.263E-04 0.263E-04
   -.424E-04 -.429E-04 0.118E-04   0.597E-04 0.604E-04 0.169E-04   0.508E-20 -.127E-19 0.179E-19   0.130E-04 0.130E-04 0.454E-04
   0.168E-03 0.168E-03 0.168E-03   0.167E-04 0.167E-04 0.167E-04   0.375E-20 -.304E-20 -.146E-19   -.253E-04 -.253E-04 -.253E-04
   -.429E-04 0.119E-04 -.424E-04   0.604E-04 0.169E-04 0.597E-04   -.847E-21 0.148E-19 0.161E-19   0.130E-04 0.454E-04 0.130E-04
   0.119E-04 -.424E-04 -.429E-04   0.169E-04 0.597E-04 0.604E-04   -.206E-20 0.762E-20 -.424E-19   0.454E-04 0.130E-04 0.130E-04
   -.307E-03 -.304E-03 -.152E-03   -.247E-04 -.296E-04 -.327E-04   -.941E-20 -.424E-20 0.381E-19   -.161E-04 -.161E-04 0.291E-04
   -.153E-03 -.153E-03 -.153E-03   -.310E-04 -.310E-04 -.310E-04   0.508E-20 -.466E-20 -.481E-19   0.289E-04 0.289E-04 0.289E-04
   -.152E-03 -.307E-03 -.304E-03   -.327E-04 -.247E-04 -.296E-04   0.424E-20 -.465E-20 -.619E-20   0.291E-04 -.161E-04 -.161E-04
   -.304E-03 -.152E-03 -.307E-03   -.296E-04 -.327E-04 -.247E-04   -.110E-20 -.241E-31 -.453E-20   -.161E-04 0.291E-04 -.161E-04
   -.421E-04 -.421E-04 -.421E-04   0.591E-04 0.591E-04 0.591E-04   -.603E-20 0.129E-20 -.242E-19   0.132E-04 0.132E-04 0.132E-04
   0.130E-03 0.126E-03 -.115E-03   0.150E-04 0.200E-04 0.588E-04   -.100E-19 0.142E-20 0.847E-20   0.107E-04 0.107E-04 0.162E-04
   -.115E-03 0.130E-03 0.126E-03   0.588E-04 0.150E-04 0.200E-04   0.593E-20 -.896E-20 0.167E-19   0.162E-04 0.107E-04 0.107E-04
   0.126E-03 -.115E-03 0.130E-03   0.200E-04 0.588E-04 0.150E-04   -.300E-20 0.136E-19 0.218E-19   0.107E-04 0.162E-04 0.107E-04
 -----------------------------------------------------------------------------------------------
   -.172E-02 -.172E-02 -.172E-02   0.250E-11 0.502E-12 0.528E-12   0.212E-18 -.110E-18 -.659E-18   -.371E-07 -.371E-07 -.371E-07
 
 
 POSITION                                       TOTAL-FORCE (eV/Angst)
 -----------------------------------------------------------------------------------
      1.06836      1.06836      1.06836         0.000000     -0.000000     -0.000000
     11.75200     11.75200      1.06836        -0.000000      0.000000      0.000000
     11.75200      1.06836     11.75200         0.000000      0.000000      0.000000
      1.06836     11.75200     11.75200        -0.000000     -0.000000     -0.000000
      3.20509      3.20509      1.06836        -0.000000      0.000000      0.000000
      3.20509      1.06836      3.20509        -0.000000      0.000000      0.000000
      1.06836      3.20509      3.20509        -0.000000     -0.000000     -0.000000
      1.06836      1.06836      5.34182         0.000000     -0.000000     -0.000000
     11.75200     11.75200      5.34182        -0.000000      0.000000     -0.000000
     11.75200      1.06836      7.47855         0.000000      0.000000      0.000000
      1.06836     11.75200      7.47855        -0.000000     -0.000000     -0.000000
      5.34182      1.06836      1.06836         0.000000     -0.000000     -0.000000
      5.34182     11.75200     11.75200        -0.000000     -0.000000     -0.000000
      7.47855     11.75200      1.06836        -0.000000      0.000000      0.000000
      7.47855      1.06836     11.75200        -0.000000      0.000000      0.000000
      1.06836      5.34182      1.06836         0.000000     -0.000000     -0.000000
     11.75200      5.34182     11.75200        -0.000000      0.000000      0.000000
      1.06836      7.47855     11.75200        -0.000000      0.000000     -0.000000
     11.75200      7.47855      1.06836        -0.000000      0.000000      0.000000
      3.20509      3.20509      9.61528         0.000000      0.000000     -0.000000
      1.06836      1.06836      9.61528         0.000000     -0.000000     -0.000000
      3.20509      1.06836      7.47855        -0.000000      0.000000      0.000000
      1.06836      3.20509      7.47855        -0.000000     -0.000000     -0.000000
      3.20509      7.47855      1.06836        -0.000000      0.000000      0.000000
      1.06836      7.47855      3.20509        -0.000000      0.000000     -0.000000
      1.06836      9.61528      1.06836         0.000000     -0.000000     -0.000000
      3.20509      9.61528      3.20509        -0.000000      0.000000      0.000000
      7.47855      3.20509      1.06836        -0.000000      0.000000      0.000000
      7.47855      1.06836      3.20509         0.000000      0.000000      0.000000
      9.61528      3.20509      3.20509        -0.000000     -0.000000     -0.000000
      9.61528      1.06836      1.06836         0.000000     -0.000000      0.000000
     11.75200     11.75200      9.61528        -0.000000      0.000000     -0.000000
     11.75200      1.06836      3.20509        -0.000000      0.000000      0.000000
      1.06836     11.75200      3.20509        -0.000000     -0.000000     -0.000000
      9.61528     11.75200     11.75200        -0.000000     -0.000000     -0.000000
      3.20509     11.75200      1.06836        -0.000000      0.000000      0.000000
      3.20509      1.06836     11.75200         0.000000      0.000000      0.000000
     11.75200      9.61528     11.75200        -0.000000      0.000000      0.000000
      1.06836      3.20509     11.75200        -0.000000     -0.000000     -0.000000
     11.75200      3.20509      1.06836        -0.000000      0.000000      0.000000
      3.20509      3.20509      5.34182         0.000000      0.000000      0.000000
      3.20509      5.34182      3.20509        -0.000000      0.000000      0.000000
      5.34182      3.20509      3.20509        -0.000000     -0.000000     -0.000000
      1.06836      5.34182      5.34182         0.000000     -0.000000      0.000000
     11.75200      7.47855      5.34182        -0.000000      0.000000      0.000000
     11.75200      5.34182      7.47855         0.000000      0.000000      0.000000
      1.06836      7.47855      7.47855        -0.000000     -0.000000     -0.000000
      5.34182      1.06836      5.34182         0.000000     -0.000000     -0.000000
      5.34182     11.75200      7.47855        -0.000000     -0.000000     -0.000000
      7.47855     11.75200      5.34182        -0.000000      0.000000     -0.000000
      7.47855      1.06836      7.47855        -0.000000      0.000000      0.000000
      5.34182      5.34182      1.06836         0.000000     -0.000000     -0.000000
      7.47855      5.34182     11.75200        -0.000000      0.000000      0.000000
      5.34182      7.47855     11.75200        -0.000000     -0.000000     -0.000000
      7.47855      7.47855      1.06836        -0.000000      0.000000      0.000000
      7.47855      3.20509      9.61528        -0.000000      0.000000     -0.000000
      9.61528      1.06836      9.61528         0.000000     -0.000000     -0.000000
      9.61528      3.20509      7.47855        -0.000000     -0.000000     -0.000000
      3.20509      7.47855      9.61528         0.000000      0.000000     -0.000000
      1.06836      9.61528      9.61528         0.000000     -0.000000      0.000000
      3.20509      9.61528      7.47855        -0.000000      0.000000      0.000000
      7.47855      9.61528      3.20509         0.000000      0.000000      0.000000
      9.61528      7.47855      3.20509        -0.000000     -0.000000     -0.000000
      9.61528      9.61528      1.06836         0.000000     -0.000000      0.000000
      1.06836      5.34182      9.61528         0.000000     -0.000000      0.000000
     11.75200      7.47855      9.61528        -0.000000      0.000000     -0.000000
     11.75200      5.34182      3.20509        -0.000000      0.000000      0.000000
      9.61528      1.06836      5.34182         0.000000     -0.000000     -0.000000
      9.61528     11.75200      7.47855        -0.000000     -0.000000     -0.000000
      3.20509     11.75200      5.34182         0.000000      0.000000      0.000000
      5.34182      9.61528      1.06836         0.000000     -0.000000      0.000000
      7.47855      9.61528     11.75200        -0.000000      0.000000      0.000000
      5.34182      3.20509     11.75200        -0.000000      0.000000     -0.000000
      7.47855      3.20509      5.34182        -0.000000      0.000000      0.000000
      9.61528      3.20509     11.75200        -0.000000     -0.000000     -0.000000
      3.20509     11.75200      9.61528         0.000000      0.000000     -0.000000
      3.20509      5.34182      7.47855        -0.000000      0.000000      0.000000
     11.75200      9.61528      3.20509         0.000000      0.000000      0.000000
      5.34182      7.47855      3.20509        -0.000000     -0.000000     -0.000000
      1.06836      9.61528      5.34182         0.000000     -0.000000      0.000000
      3.20509      7.47855      5.34182         0.000000      0.000000      0.000000
      3.20509      9.61528     11.75200        -0.000000      0.000000      0.000000
      5.34182      1.06836      9.61528         0.000000     -0.000000     -0.000000
      5.34182      3.20509      7.47855        -0.000000      0.000000     -0.000000
     11.75200      3.20509      9.61528        -0.000000      0.000000      0.000000
      9.61528      5.34182      1.06836         0.000000     -0.000000      0.000000
      7.47855      5.34182      3.20509         0.000000      0.000000      0.000000
      9.61528     11.75200      3.20509        -0.000000     -0.000000     -0.000000
      7.47855     11.75200      9.61528        -0.000000      0.000000     -0.000000
      5.34182     11.75200      3.20509        -0.000000     -0.000000     -0.000000
     11.75200      3.20509      5.34182         0.000000      0.000000      0.000000
     11.75200      9.61528      7.47855        -0.000000      0.000000      0.000000
      3.20509      5.34182     11.75200        -0.000000      0.000000      0.000000
      9.61528      7.47855     11.75200        -0.000000     -0.000000     -0.000000
      5.34182      5.34182      5.34182         0.000000     -0.000000      0.000000
      7.47855      7.47855      5.34182        -0.000000      0.000000     -0.000000
      7.47855      5.34182      7.47855         0.000000      0.000000      0.000000
      5.34182      7.47855      7.47855        -0.000000     -0.000000     -0.000000
      7.47855      7.47855      9.61528        -0.000000      0.000000     -0.000000
      9.61528      9.61528      9.61528         0.000000     -0.000000      0.000000
      7.47855      9.61528      7.47855         0.000000      0.000000      0.000000
      9.61528      7.47855      7.47855        -0.000000      0.000000     -0.000000
      5.34182      5.34182      9.61528         0.000000     -0.000000      0.000000
      9.61528      5.34182      5.34182         0.000000     -0.000000     -0.000000
      5.34182      9.61528      5.34182         0.000000     -0.000000      0.000000
      9.61528      9.61528      5.34182         0.000000     -0.000000      0.000000
      9.61528      5.34182      9.61528         0.000000     -0.000000      0.000000
      5.34182      9.61528      9.61528         0.000000     -0.000000      0.000000
     -0.00000     -0.00000     -0.00000         0.000000     -0.000000      0.000000
      2.13673      2.13673      2.13673        -0.000000      0.000000     -0.000000
     -0.00000     -0.00000      4.27346         0.000000     -0.000000      0.000000
     -0.00000     -0.00000      8.54691         0.000000     -0.000000      0.000000
      4.27346     -0.00000     -0.00000         0.000000     -0.000000      0.000000
      8.54691     -0.00000     -0.00000         0.000000     -0.000000      0.000000
     -0.00000      4.27346     -0.00000         0.000000     -0.000000      0.000000
     -0.00000      8.54691     -0.00000         0.000000     -0.000000      0.000000
      2.13673      2.13673     10.68364        -0.000000      0.000000     -0.000000
      2.13673      2.13673      6.41018        -0.000000      0.000000     -0.000000
      2.13673      6.41018      2.13673        -0.000000      0.000000     -0.000000
      2.13673     10.68364      2.13673        -0.000000      0.000000     -0.000000
      6.41018      2.13673      2.13673        -0.000000      0.000000     -0.000000
     10.68364      2.13673      2.13673        -0.000000      0.000000     -0.000000
     -0.00000      4.27346      4.27346         0.000000     -0.000000      0.000000
     -0.00000      8.54691      4.27346         0.000000     -0.000000      0.000000
     -0.00000      4.27346      8.54691         0.000000     -0.000000      0.000000
     -0.00000      8.54691      8.54691         0.000000     -0.000000      0.000000
      4.27346     -0.00000      4.27346         0.000000     -0.000000      0.000000
      4.27346     -0.00000      8.54691         0.000000     -0.000000      0.000000
      8.54691     -0.00000      4.27346         0.000000     -0.000000      0.000000
      8.54691     -0.00000      8.54691         0.000000     -0.000000      0.000000
      4.27346      4.27346     -0.00000         0.000000     -0.000000      0.000000
      8.54691      4.27346     -0.00000         0.000000     -0.000000      0.000000
      4.27346      8.54691     -0.00000         0.000000     -0.000000      0.000000
      8.54691      8.54691     -0.00000         0.000000     -0.000000      0.000000
      6.41018      2.13673     10.68364        -0.000000      0.000000     -0.000000
     10.68364      2.13673     10.68364        -0.000000      0.000000     -0.000000
      6.41018      2.13673      6.41018        -0.000000      0.000000     -0.000000
     10.68364      2.13673      6.41018        -0.000000      0.000000     -0.000000
      2.13673      6.41018     10.68364        -0.000000      0.000000     -0.000000
      2.13673      6.41018      6.41018        -0.000000      0.000000     -0.000000
      2.13673     10.68364     10.68364        -0.000000      0.000000     -0.000000
      2.13673     10.68364      6.41018        -0.000000      0.000000     -0.000000
      6.41018      6.41018      2.13673        -0.000000      0.000000     -0.000000
      6.41018     10.68364      2.13673        -0.000000      0.000000     -0.000000
     10.68364      6.41018      2.13673        -0.000000      0.000000     -0.000000
     10.68364     10.68364      2.13673        -0.000000      0.000000     -0.000000
      4.27346      4.27346      4.27346         0.000000     -0.000000      0.000000
      8.54691      8.54691      4.27346         0.000000      0.000000      0.000000
      8.54691      4.27346      8.54691         0.000000     -0.000000      0.000000
      4.27346      8.54691      8.54691         0.000000     -0.000000      0.000000
      6.41018      6.41018     10.68364        -0.000000      0.000000     -0.000000
     10.68364     10.68364     10.68364         0.000000      0.000000     -0.000000
      6.41018     10.68364      6.41018        -0.000000      0.000000     -0.000000
     10.68364      6.41018      6.41018        -0.000000      0.000000     -0.000000
      4.27346      4.27346      8.54691         0.000000     -0.000000      0.000000
      8.54691      8.54691      8.54691         0.000000     -0.000000      0.000000
      8.54691      4.27346      4.27346         0.000000     -0.000000      0.000000
      4.27346      8.54691      4.27346         0.000000      0.000000      0.000000
      6.41018      6.41018      6.41018        -0.000000      0.000000     -0.000000
     10.68364     10.68364      6.41018        -0.000000      0.000000     -0.000000
      6.41018     10.68364     10.68364        -0.000000      0.000000     -0.000000
     10.68364      6.41018     10.68364        -0.000000      0.000000     -0.000000
 -----------------------------------------------------------------------------------
    total drift:                               -0.001716     -0.001716     -0.001716


--------------------------------------------------------------------------------------------------------



  FREE ENERGIE OF THE ION-ELECTRON SYSTEM (eV)
  ---------------------------------------------------
  free  energy   TOTEN  =      -734.22109739 eV

  energy  without entropy=     -734.22103311  energy(sigma->0) =     -734.22106525
 
 d Force = 0.0000000E+00[ 0.000E+00, 0.000E+00]  d Energy = 0.3265430E-01-0.327E-01
 d Force = 0.0000000E+00[ 0.000E+00, 0.000E+00]  d Ewald  = 0.2442753E+03-0.244E+03


--------------------------------------------------------------------------------------------------------


    POTLOK:  cpu time    0.0750: real time    0.0746


--------------------------------------------------------------------------------------------------------


 Quasi-Newton relaxation of ions (Broydens 2nd method)
  g(Force)  = 0.422E-37   g(Stress)= 0.114E-03

 retain information from N=  1 steps
 eigenvalues of (default step * inverse Hessian matrix)
  average eigenvalue of G=   0.6324
 eigenvalue spectrum of G is  0.6324


--------------------------------------------------------------------------------------------------------


  
 reached required accuracy - stopping structural energy minimisation
     LOOP+:  cpu time  202.0323: real time  202.4129
    4ORBIT:  cpu time    0.0000: real time    0.0000

 total amount of memory used by VASP on root node   119981. kBytes
========================================================================

   base      :      30000. kBytes
   nonlr-proj:       7634. kBytes
   fftplans  :       3248. kBytes
   grid      :       5029. kBytes
   one-center:        326. kBytes
   wavefun   :      73744. kBytes
 
  
  
 General timing and accounting informations for this job:
 ========================================================
  
                  Total CPU time used (sec):     1001.442
                            User time (sec):     1000.397
                          System time (sec):        1.045
                         Elapsed time (sec):     1004.220
  
                   Maximum memory used (kb):      200980.
                   Average memory used (kb):           0.
  
                          Minor page faults:        52858
                          Major page faults:           89
                 Voluntary context switches:         4116
