/var/spool/slurmd/job16040440/slurm_script: line 17: ulimit: max memory size: cannot modify limit: Operation not permitted
perl: warning: Setting locale failed.
perl: warning: Please check that your locale settings:
	LANGUAGE = (unset),
	LC_ALL = (unset),
	LC_CTYPE = "UTF-8",
	LANG = "en_US.iso885915"
    are supported and installed on your system.
perl: warning: Falling back to the standard locale ("C").
Starting job 16040440 ("333superCu2O") on c10-[9,26] at Tue Nov 29 16:13:28 CET 2016
 running on   32 total cores
 distrk:  each k-point on   32 cores,    1 groups
 distr:  one band on    8 cores,    4 groups
 using from now: INCAR     
 vasp.5.4.1 05Feb16 (build Aug 09 2016 09:44:09) complex                        
  
 POSCAR found type information on POSCAR  Cu O 
 POSCAR found :  2 types and     162 ions
 LDA part: xc-table for Pade appr. of Perdew
 POSCAR, INCAR and KPOINTS ok, starting setup
 WARNING: small aliasing (wrap around) errors must be expected
 FFT: planning ...
 WAVECAR not read
 entering main loop
       N       E                     dE             d eps       ncg     rms          rms(c)
DAV:   1     0.159877700969E+05    0.15988E+05   -0.55051E+05  7264   0.191E+03
DAV:   2     0.288812530456E+04   -0.13100E+05   -0.12404E+05  7264   0.508E+02
DAV:   3    -0.357014686769E+03   -0.32451E+04   -0.30062E+04  7352   0.236E+02
DAV:   4    -0.873586816006E+03   -0.51657E+03   -0.49353E+03  7876   0.915E+01
DAV:   5    -0.896537557220E+03   -0.22951E+02   -0.22586E+02  7776   0.208E+01    0.891E+01
RMM:   6    -0.822442827114E+03    0.74095E+02   -0.15801E+03  7265   0.684E+01    0.555E+01
RMM:   7    -0.736179106333E+03    0.86264E+02   -0.29736E+02  7265   0.323E+01    0.139E+01
RMM:   8    -0.734890755145E+03    0.12884E+01   -0.25980E+00  7389   0.204E+00    0.851E+00
RMM:   9    -0.734234247579E+03    0.65651E+00   -0.17545E+00  7366   0.256E+00    0.239E+00
RMM:  10    -0.734133514941E+03    0.10073E+00   -0.39916E-01  7264   0.119E+00    0.281E-01
RMM:  11    -0.734136581749E+03   -0.30668E-02   -0.14405E-02  7328   0.225E-01    0.209E-01
RMM:  12    -0.734136063318E+03    0.51843E-03   -0.45881E-03  7525   0.114E-01    0.634E-02
RMM:  13    -0.734136076124E+03   -0.12806E-04   -0.71534E-04  7501   0.310E-02    0.484E-02
RMM:  14    -0.734136014683E+03    0.61441E-04   -0.87319E-05  7499   0.112E-02    0.168E-02
RMM:  15    -0.734135998453E+03    0.16230E-04   -0.22339E-05  5849   0.441E-03    0.250E-03
RMM:  16    -0.734136000524E+03   -0.20708E-05   -0.10638E-06  4375   0.184E-03    0.232E-03
RMM:  17    -0.734136000805E+03   -0.28132E-06   -0.22645E-07  3986   0.612E-04
   1 F= -.73413600E+03 E0= -.73413598E+03  d E =-.734136E+03
 BRION: g(F)=  0.626E-38 g(S)=  0.269E+00
 bond charge predicted
       N       E                     dE             d eps       ncg     rms          rms(c)
DAV:   1    -0.740302484284E+03   -0.61665E+01   -0.70030E+01  8600   0.207E+01    0.184E+01
RMM:   2    -0.736648139978E+03    0.36543E+01   -0.14233E+01  7505   0.713E+00    0.107E+01
RMM:   3    -0.734302631911E+03    0.23455E+01   -0.10011E+01  7525   0.285E+00    0.224E+00
RMM:   4    -0.734231397373E+03    0.71235E-01   -0.38458E-01  7652   0.946E-01    0.151E+00
RMM:   5    -0.734190973078E+03    0.40424E-01   -0.24313E-01  7524   0.556E-01    0.307E-01
RMM:   6    -0.734188962652E+03    0.20104E-02   -0.52975E-03  7382   0.119E-01    0.161E-01
RMM:   7    -0.734188489903E+03    0.47275E-03   -0.22089E-03  7478   0.693E-02    0.309E-02
RMM:   8    -0.734188461752E+03    0.28151E-04   -0.19107E-04  7296   0.252E-02    0.448E-03
RMM:   9    -0.734188452307E+03    0.94448E-05   -0.28400E-05  7189   0.554E-03    0.107E-02
RMM:  10    -0.734188448784E+03    0.35235E-05   -0.44040E-05  7514   0.655E-03    0.136E-02
RMM:  11    -0.734188440796E+03    0.79877E-05   -0.12570E-05  5755   0.332E-03    0.128E-03
RMM:  12    -0.734188442285E+03   -0.14893E-05   -0.15849E-06  4437   0.171E-03    0.165E-03
RMM:  13    -0.734188443089E+03   -0.80411E-06   -0.39222E-07  3921   0.717E-04
   2 F= -.73418844E+03 E0= -.73418840E+03  d E =-.524423E-01
 BRION: g(F)=  0.109E-37 g(S)=  0.107E+00 retain N=  1 mean eig= 0.61
 eig:   0.612
 bond charge predicted
       N       E                     dE             d eps       ncg     rms          rms(c)
DAV:   1    -0.735159213238E+03   -0.97077E+00   -0.10503E+01  8592   0.792E+00    0.732E+00
RMM:   2    -0.734217621268E+03    0.94159E+00   -0.27315E+00  7264   0.297E+00    0.566E-01
RMM:   3    -0.734223591691E+03   -0.59704E-02   -0.14360E-01  7621   0.384E-01    0.301E-01
RMM:   4    -0.734221161613E+03    0.24301E-02   -0.65213E-03  7545   0.114E-01    0.498E-02
RMM:   5    -0.734221151154E+03    0.10459E-04   -0.11653E-03  7590   0.327E-02    0.504E-02
RMM:   6    -0.734221102246E+03    0.48908E-04   -0.75728E-05  7354   0.116E-02    0.245E-02
RMM:   7    -0.734221097053E+03    0.51928E-05   -0.55613E-05  6599   0.652E-03    0.130E-03
RMM:   8    -0.734221097387E+03   -0.33382E-06   -0.36585E-06  4660   0.319E-03
   3 F= -.73422110E+03 E0= -.73422107E+03  d E =-.326543E-01
 BRION: g(F)=  0.422E-37 g(S)=  0.114E-03 retain N=  1 mean eig= 0.63
 eig:   0.632
 reached required accuracy - stopping structural energy minimisation

Currently Loaded Modulefiles:
  1) intel/2015.3       4) gnuplot/5.0.4      7) vasp/5.4.1.Feb16
  2) libffi/3.0.13      5) vesta/3.3.8
  3) python2/2.7.10     6) intel/2016.1

Job step resource usage:
       JobID    JobName  AllocCPUS  MaxVMSize     MaxRSS    Elapsed ExitCode 
------------ ---------- ---------- ---------- ---------- ---------- -------- 
16040440     333superC+         32                         00:16:52      0:0 
16040440.0         true          2    273524K       610K   00:00:03      0:0 
16040440.1    pmi_proxy          2  10476676K   2665644K   00:16:46      0:0 

Job 16040440 ("333superCu2O") completed on c10-[9,26] at Tue Nov 29 16:30:16 CET 2016
