<?xml version="1.0" encoding="ISO-8859-1"?>
<modeling>
 <generator>
  <i name="program" type="string">vasp </i>
  <i name="version" type="string">5.4.1  </i>
  <i name="subversion" type="string">05Feb16 (build Aug 09 2016 09:44:09) complex                          parallel </i>
  <i name="platform" type="string">Abel-impi-ifc-cuda </i>
  <i name="date" type="string">2016 11 29 </i>
  <i name="time" type="string">16:13:33 </i>
 </generator>
 <incar>
  <i type="string" name="PREC">normal    ! low/normal/accurate</i>
  <i type="string" name="ALGO"> Fast      ! Algorithm for electronic re</i>
  <i type="int" name="MAXMIX">    80</i>
  <i type="int" name="NELMIN">     5</i>
  <i type="int" name="IBRION">     1</i>
  <i name="EDIFF">      0.00000100</i>
  <i name="EDIFFG">     -0.05000000</i>
  <i type="int" name="NSW">    50</i>
  <i type="int" name="ISIF">     3</i>
  <i name="ENCUT">    400.00000000</i>
  <i type="string" name="LREAL"> Auto      ! Projection in reciprocal sp</i>
  <i type="int" name="ISMEAR">     0</i>
  <i name="SIGMA">      0.10000000</i>
  <i type="logical" name="LWAVE"> F  </i>
  <v type="int" name="KPOINT_BSE">    -1     0     0     0</v>
 </incar>
 <kpoints>
  <generation param="Gamma">
   <v type="int" name="divisions">       2        2        2 </v>
   <v name="usershift">      0.00000000       0.00000000       0.00000000 </v>
   <v name="genvec1">      0.50000000       0.00000000       0.00000000 </v>
   <v name="genvec2">      0.00000000       0.50000000       0.00000000 </v>
   <v name="genvec3">      0.00000000       0.00000000       0.50000000 </v>
   <v name="shift">      0.00000000       0.00000000       0.00000000 </v>
  </generation>
  <varray name="kpointlist" >
   <v>       0.00000000       0.00000000       0.00000000 </v>
   <v>       0.50000000       0.00000000       0.00000000 </v>
   <v>       0.50000000       0.50000000       0.00000000 </v>
   <v>       0.50000000       0.50000000       0.50000000 </v>
  </varray>
  <varray name="weights" >
   <v>       0.12500000 </v>
   <v>       0.37500000 </v>
   <v>       0.37500000 </v>
   <v>       0.12500000 </v>
  </varray>
 </kpoints>
 <parameters>
  <separator name="general" >
   <i type="string" name="SYSTEM">unknown system</i>
   <i type="logical" name="LCOMPAT"> F  </i>
  </separator>
  <separator name="electronic" >
   <i type="string" name="PREC">normal</i>
   <i name="ENMAX">    400.00000000</i>
   <i name="ENAUG">    605.39200000</i>
   <i name="EDIFF">      0.00000100</i>
   <i type="int" name="IALGO">    68</i>
   <i type="int" name="IWAVPR">    11</i>
   <i type="int" name="NBANDS">   908</i>
   <i name="NELECT">   1512.00000000</i>
   <i type="int" name="TURBO">     0</i>
   <i type="int" name="IRESTART">     0</i>
   <i type="int" name="NREBOOT">     0</i>
   <i type="int" name="NMIN">     0</i>
   <i name="EREF">      0.00000000</i>
   <separator name="electronic smearing" >
    <i type="int" name="ISMEAR">     0</i>
    <i name="SIGMA">      0.10000000</i>
    <i name="KSPACING">      0.50000000</i>
    <i type="logical" name="KGAMMA"> T  </i>
   </separator>
   <separator name="electronic projectors" >
    <i type="logical" name="LREAL"> T  </i>
    <v name="ROPT">     -0.00050000     -0.00050000</v>
    <i type="int" name="LMAXPAW">  -100</i>
    <i type="int" name="LMAXMIX">     2</i>
    <i type="logical" name="NLSPLINE"> F  </i>
   </separator>
   <separator name="electronic startup" >
    <i type="int" name="ISTART">     0</i>
    <i type="int" name="ICHARG">     2</i>
    <i type="int" name="INIWAV">     1</i>
   </separator>
   <separator name="electronic spin" >
    <i type="int" name="ISPIN">     1</i>
    <i type="logical" name="LNONCOLLINEAR"> F  </i>
    <v name="MAGMOM">      1.00000000      1.00000000      1.00000000      1.00000000      1.00000000      1.00000000      1.00000000      1.00000000      1.00000000      1.00000000      1.00000000      1.00000000      1.00000000      1.00000000      1.00000000      1.00000000      1.00000000      1.00000000      1.00000000      1.00000000
      1.00000000      1.00000000      1.00000000      1.00000000      1.00000000      1.00000000      1.00000000      1.00000000      1.00000000      1.00000000      1.00000000      1.00000000      1.00000000      1.00000000      1.00000000      1.00000000      1.00000000      1.00000000      1.00000000      1.00000000
      1.00000000      1.00000000      1.00000000      1.00000000      1.00000000      1.00000000      1.00000000      1.00000000      1.00000000      1.00000000      1.00000000      1.00000000      1.00000000      1.00000000      1.00000000      1.00000000      1.00000000      1.00000000      1.00000000      1.00000000
      1.00000000      1.00000000      1.00000000      1.00000000      1.00000000      1.00000000      1.00000000      1.00000000      1.00000000      1.00000000      1.00000000      1.00000000      1.00000000      1.00000000      1.00000000      1.00000000      1.00000000      1.00000000      1.00000000      1.00000000
      1.00000000      1.00000000      1.00000000      1.00000000      1.00000000      1.00000000      1.00000000      1.00000000      1.00000000      1.00000000      1.00000000      1.00000000      1.00000000      1.00000000      1.00000000      1.00000000      1.00000000      1.00000000      1.00000000      1.00000000
      1.00000000      1.00000000      1.00000000      1.00000000      1.00000000      1.00000000      1.00000000      1.00000000      1.00000000      1.00000000      1.00000000      1.00000000      1.00000000      1.00000000      1.00000000      1.00000000      1.00000000      1.00000000      1.00000000      1.00000000
      1.00000000      1.00000000      1.00000000      1.00000000      1.00000000      1.00000000      1.00000000      1.00000000      1.00000000      1.00000000      1.00000000      1.00000000      1.00000000      1.00000000      1.00000000      1.00000000      1.00000000      1.00000000      1.00000000      1.00000000
      1.00000000      1.00000000      1.00000000      1.00000000      1.00000000      1.00000000      1.00000000      1.00000000      1.00000000      1.00000000      1.00000000      1.00000000      1.00000000      1.00000000      1.00000000      1.00000000      1.00000000      1.00000000      1.00000000      1.00000000
      1.00000000      1.00000000</v>
    <i name="NUPDOWN">     -1.00000000</i>
    <i type="logical" name="LSORBIT"> F  </i>
    <v name="SAXIS">      0.00000000      0.00000000      1.00000000</v>
    <i type="logical" name="LSPIRAL"> F  </i>
    <v name="QSPIRAL">      0.00000000      0.00000000      0.00000000</v>
    <i type="logical" name="LZEROZ"> F  </i>
   </separator>
   <separator name="electronic exchange-correlation" >
    <i type="logical" name="LASPH"> F  </i>
    <i type="logical" name="LMETAGGA"> F  </i>
   </separator>
   <separator name="electronic convergence" >
    <i type="int" name="NELM">    60</i>
    <i type="int" name="NELMDL">    -5</i>
    <i type="int" name="NELMIN">     5</i>
    <i name="ENINI">    400.00000000</i>
    <separator name="electronic convergence detail" >
     <i type="logical" name="LDIAG"> T  </i>
     <i type="logical" name="LSUBROT"> F  </i>
     <i name="WEIMIN">      0.00100000</i>
     <i name="EBREAK">      0.00000000</i>
     <i name="DEPER">      0.30000000</i>
     <i type="int" name="NRMM">     4</i>
     <i name="TIME">      0.40000000</i>
    </separator>
   </separator>
   <separator name="electronic mixer" >
    <i name="AMIX">      0.40000000</i>
    <i name="BMIX">      1.00000000</i>
    <i name="AMIN">      0.10000000</i>
    <i name="AMIX_MAG">      1.60000000</i>
    <i name="BMIX_MAG">      1.00000000</i>
    <separator name="electronic mixer details" >
     <i type="int" name="IMIX">     4</i>
     <i type="logical" name="MIXFIRST"> F  </i>
     <i type="int" name="MAXMIX">    80</i>
     <i name="WC">    100.00000000</i>
     <i type="int" name="INIMIX">     1</i>
     <i type="int" name="MIXPRE">     1</i>
     <i type="int" name="MREMOVE">     5</i>
    </separator>
   </separator>
   <separator name="electronic dipolcorrection" >
    <i type="logical" name="LDIPOL"> F  </i>
    <i type="logical" name="LMONO"> F  </i>
    <i type="int" name="IDIPOL">     0</i>
    <i name="EPSILON">      1.00000000</i>
    <v name="DIPOL">   -100.00000000   -100.00000000   -100.00000000</v>
    <i name="EFIELD">      0.00000000</i>
   </separator>
  </separator>
  <separator name="grids" >
   <i type="int" name="NGX">    64</i>
   <i type="int" name="NGY">    64</i>
   <i type="int" name="NGZ">    64</i>
   <i type="int" name="NGXF">   128</i>
   <i type="int" name="NGYF">   128</i>
   <i type="int" name="NGZF">   128</i>
   <i type="logical" name="ADDGRID"> F  </i>
  </separator>
  <separator name="ionic" >
   <i type="int" name="NSW">    50</i>
   <i type="int" name="IBRION">     1</i>
   <i type="int" name="ISIF">     3</i>
   <i name="PSTRESS">      0.00000000</i>
   <i name="EDIFFG">     -0.05000000</i>
   <i type="int" name="NFREE">     0</i>
   <i name="POTIM">      0.50000000</i>
   <i name="SMASS">     -3.00000000</i>
   <i name="SCALEE">      1.00000000</i>
  </separator>
  <separator name="ionic md" >
   <i name="TEBEG">      0.00010000</i>
   <i name="TEEND">      0.00010000</i>
   <i type="int" name="NBLOCK">     1</i>
   <i type="int" name="KBLOCK">    50</i>
   <i type="int" name="NPACO">   256</i>
   <i name="APACO">     16.00000000</i>
  </separator>
  <separator name="symmetry" >
   <i type="int" name="ISYM">     2</i>
   <i name="SYMPREC">      0.00001000</i>
  </separator>
  <separator name="dos" >
   <i type="logical" name="LORBIT"> F  </i>
   <v name="RWIGS">     -1.00000000     -1.00000000</v>
   <i type="int" name="NEDOS">   301</i>
   <i name="EMIN">     10.00000000</i>
   <i name="EMAX">    -10.00000000</i>
   <i name="EFERMI">      0.00000000</i>
  </separator>
  <separator name="writing" >
   <i type="int" name="NWRITE">     2</i>
   <i type="logical" name="LWAVE"> F  </i>
   <i type="logical" name="LCHARG"> T  </i>
   <i type="logical" name="LPARD"> F  </i>
   <i type="logical" name="LVTOT"> F  </i>
   <i type="logical" name="LVHAR"> F  </i>
   <i type="logical" name="LELF"> F  </i>
   <i type="logical" name="LOPTICS"> F  </i>
   <v name="STM">      0.00000000      0.00000000      0.00000000      0.00000000      0.00000000      0.00000000      0.00000000</v>
  </separator>
  <separator name="performance" >
   <i type="int" name="NPAR">     4</i>
   <i type="int" name="NSIM">     4</i>
   <i type="int" name="NBLK">    -1</i>
   <i type="logical" name="LPLANE"> T  </i>
   <i type="logical" name="LSCALAPACK"> F  </i>
   <i type="logical" name="LSCAAWARE"> F  </i>
   <i type="logical" name="LSCALU"> F  </i>
   <i type="logical" name="LASYNC"> F  </i>
   <i type="logical" name="LORBITALREAL"> F  </i>
  </separator>
  <separator name="miscellaneous" >
   <i type="int" name="IDIOT">     3</i>
   <i type="logical" name="LMUSIC"> F  </i>
   <v name="POMASS">     63.54600000     16.00000000</v>
   <v name="DARWINR">      0.00000000      0.00000000</v>
   <v name="DARWINV">      1.00000000      1.00000000</v>
   <i type="logical" name="LCORR"> T  </i>
  </separator>
  <i type="logical" name="GGA_COMPAT"> T  </i>
  <i type="logical" name="LBERRY"> F  </i>
  <i type="int" name="ICORELEVEL">     0</i>
  <i type="logical" name="LDAU"> F  </i>
  <i type="int" name="I_CONSTRAINED_M">     0</i>
  <separator name="electronic exchange-correlation" >
   <i type="string" name="GGA">--</i>
   <i type="int" name="VOSKOWN">     0</i>
   <i type="logical" name="LHFCALC"> F  </i>
   <i type="string" name="PRECFOCK"></i>
   <i type="logical" name="LSYMGRAD"> F  </i>
   <i type="logical" name="LHFONE"> F  </i>
   <i type="logical" name="LRHFCALC"> F  </i>
   <i type="logical" name="LTHOMAS"> F  </i>
   <i type="logical" name="LMODELHF"> F  </i>
   <i name="ENCUT4O">     -1.00000000</i>
   <i type="int" name="EXXOEP">     0</i>
   <i type="int" name="FOURORBIT">     0</i>
   <i name="AEXX">      0.00000000</i>
   <i name="HFALPHA">      0.00000000</i>
   <i name="MCALPHA">      0.00000000</i>
   <i name="ALDAX">      1.00000000</i>
   <i name="AGGAX">      1.00000000</i>
   <i name="ALDAC">      1.00000000</i>
   <i name="AGGAC">      1.00000000</i>
   <i type="int" name="NKREDX">     1</i>
   <i type="int" name="NKREDY">     1</i>
   <i type="int" name="NKREDZ">     1</i>
   <i type="logical" name="SHIFTRED"> F  </i>
   <i type="logical" name="ODDONLY"> F  </i>
   <i type="logical" name="EVENONLY"> F  </i>
   <i type="int" name="LMAXFOCK">     0</i>
   <i type="int" name="NMAXFOCKAE">     0</i>
   <i type="logical" name="LFOCKAEDFT"> F  </i>
   <i name="HFSCREEN">      0.00000000</i>
   <i name="HFSCREENC">      0.00000000</i>
   <i type="int" name="NBANDSGWLOW">     0</i>
  </separator>
  <separator name="vdW DFT" >
   <i type="logical" name="LUSE_VDW"> F  </i>
   <i name="Zab_VDW">     -0.84910000</i>
   <i name="PARAM1">      0.12340000</i>
   <i name="PARAM2">      1.00000000</i>
   <i name="PARAM3">      0.00000000</i>
  </separator>
  <separator name="model GW" >
   <i type="int" name="MODEL_GW">     0</i>
   <i name="MODEL_EPS0">      7.73087885</i>
   <i name="MODEL_ALPHA">      1.00000000</i>
  </separator>
  <separator name="linear response parameters" >
   <i type="logical" name="LEPSILON"> F  </i>
   <i type="logical" name="LRPA"> F  </i>
   <i type="logical" name="LNABLA"> F  </i>
   <i type="logical" name="LVEL"> F  </i>
   <i type="int" name="KINTER">     0</i>
   <i name="CSHIFT">      0.10000000</i>
   <i name="OMEGAMAX">     -1.00000000</i>
   <i name="DEG_THRESHOLD">      0.00200000</i>
  </separator>
  <separator name="orbital magnetization" >
   <i type="logical" name="NUCIND"> F  </i>
   <v name="MAGPOS">      0.00000000      0.00000000      0.00000000</v>
   <i type="logical" name="LNICSALL"> T  </i>
   <i type="logical" name="ORBITALMAG"> F  </i>
   <i type="logical" name="LMAGBLOCH"> F  </i>
   <i type="logical" name="LCHIMAG"> F  </i>
   <i type="logical" name="LGAUGE"> T  </i>
   <i type="int" name="MAGATOM">     0</i>
   <v name="MAGDIPOL">      0.00000000      0.00000000      0.00000000</v>
   <v name="AVECCONST">      0.00000000      0.00000000      0.00000000</v>
  </separator>
  <separator name="response functions" >
   <i type="logical" name="LADDER"> F  </i>
   <i type="logical" name="LFXC"> F  </i>
   <i type="logical" name="LHARTREE"> T  </i>
   <i type="int" name="IBSE">     0</i>
   <v type="int" name="KPOINT">    -1     0     0     0</v>
   <i type="logical" name="LTCTE"> F  </i>
   <i type="logical" name="LTETE"> F  </i>
   <i type="logical" name="LTRIPLET"> F  </i>
   <i type="logical" name="LFXCEPS"> F  </i>
   <i type="logical" name="LFXHEG"> F  </i>
   <i type="int" name="NATURALO">     0</i>
   <i type="logical" name="L2ORDER"> F  </i>
   <i type="logical" name="LUSEW"> F  </i>
   <i name="ENCUTGW">     -2.00000000</i>
   <i name="ENCUTGWSOFT">     -2.00000000</i>
   <i name="ENCUTLF">     -1.00000000</i>
   <i type="int" name="LMAXMP2">    -1</i>
   <i name="SCISSOR">      0.00000000</i>
   <i type="int" name="NOMEGA">     0</i>
   <i type="int" name="NOMEGAR">     0</i>
   <i type="int" name="NBANDSGW">    -1</i>
   <i type="int" name="NBANDSO">    -1</i>
   <i type="int" name="NBANDSV">    -1</i>
   <i type="int" name="NELM">     1</i>
   <i type="int" name="NELMHF">     1</i>
   <i type="int" name="DIM">     3</i>
   <i type="int" name="ANTIRES">     0</i>
   <i name="OMEGAMAX">    -30.00000000</i>
   <i name="OMEGAMIN">    -30.00000000</i>
   <i name="OMEGATL">   -200.00000000</i>
   <i type="int" name="OMEGAGRID">     0</i>
   <i name="CSHIFT">     -0.10000000</i>
   <i type="logical" name="SELFENERGY"> F  </i>
   <i type="logical" name="LSPECTRAL"> F  </i>
   <i type="logical" name="LSPECTRALGW"> F  </i>
   <i type="logical" name="LSINGLES"> F  </i>
   <i type="logical" name="LFERMIGW"> F  </i>
   <i type="logical" name="ODDONLYGW"> F  </i>
   <i type="logical" name="EVENONLYGW"> F  </i>
   <i type="int" name="NKREDLFX">     1</i>
   <i type="int" name="NKREDLFY">     1</i>
   <i type="int" name="NKREDLFZ">     1</i>
   <i type="int" name="MAXMEM">  1800</i>
   <i type="int" name="TELESCOPE">     0</i>
   <i type="int" name="TAUPAR">     1</i>
   <i type="int" name="OMEGAPAR">    -1</i>
   <i name="LAMBDA">      1.00000000</i>
  </separator>
  <separator name="External order field" >
   <i name="OFIELD_KAPPA">      0.00000000</i>
   <v name="OFIELD_K">      0.00000000      0.00000000      0.00000000</v>
   <i name="OFIELD_Q6_NEAR">      0.00000000</i>
   <i name="OFIELD_Q6_FAR">      0.00000000</i>
   <i name="OFIELD_A">      0.00000000</i>
  </separator>
 </parameters>
 <atominfo>
  <atoms>     162 </atoms>
  <types>       2 </types>
  <array name="atoms" >
   <dimension dim="1">ion</dimension>
   <field type="string">element</field>
   <field type="int">atomtype</field>
   <set>
    <rc><c>Cu</c><c>   1</c></rc>
    <rc><c>Cu</c><c>   1</c></rc>
    <rc><c>Cu</c><c>   1</c></rc>
    <rc><c>Cu</c><c>   1</c></rc>
    <rc><c>Cu</c><c>   1</c></rc>
    <rc><c>Cu</c><c>   1</c></rc>
    <rc><c>Cu</c><c>   1</c></rc>
    <rc><c>Cu</c><c>   1</c></rc>
    <rc><c>Cu</c><c>   1</c></rc>
    <rc><c>Cu</c><c>   1</c></rc>
    <rc><c>Cu</c><c>   1</c></rc>
    <rc><c>Cu</c><c>   1</c></rc>
    <rc><c>Cu</c><c>   1</c></rc>
    <rc><c>Cu</c><c>   1</c></rc>
    <rc><c>Cu</c><c>   1</c></rc>
    <rc><c>Cu</c><c>   1</c></rc>
    <rc><c>Cu</c><c>   1</c></rc>
    <rc><c>Cu</c><c>   1</c></rc>
    <rc><c>Cu</c><c>   1</c></rc>
    <rc><c>Cu</c><c>   1</c></rc>
    <rc><c>Cu</c><c>   1</c></rc>
    <rc><c>Cu</c><c>   1</c></rc>
    <rc><c>Cu</c><c>   1</c></rc>
    <rc><c>Cu</c><c>   1</c></rc>
    <rc><c>Cu</c><c>   1</c></rc>
    <rc><c>Cu</c><c>   1</c></rc>
    <rc><c>Cu</c><c>   1</c></rc>
    <rc><c>Cu</c><c>   1</c></rc>
    <rc><c>Cu</c><c>   1</c></rc>
    <rc><c>Cu</c><c>   1</c></rc>
    <rc><c>Cu</c><c>   1</c></rc>
    <rc><c>Cu</c><c>   1</c></rc>
    <rc><c>Cu</c><c>   1</c></rc>
    <rc><c>Cu</c><c>   1</c></rc>
    <rc><c>Cu</c><c>   1</c></rc>
    <rc><c>Cu</c><c>   1</c></rc>
    <rc><c>Cu</c><c>   1</c></rc>
    <rc><c>Cu</c><c>   1</c></rc>
    <rc><c>Cu</c><c>   1</c></rc>
    <rc><c>Cu</c><c>   1</c></rc>
    <rc><c>Cu</c><c>   1</c></rc>
    <rc><c>Cu</c><c>   1</c></rc>
    <rc><c>Cu</c><c>   1</c></rc>
    <rc><c>Cu</c><c>   1</c></rc>
    <rc><c>Cu</c><c>   1</c></rc>
    <rc><c>Cu</c><c>   1</c></rc>
    <rc><c>Cu</c><c>   1</c></rc>
    <rc><c>Cu</c><c>   1</c></rc>
    <rc><c>Cu</c><c>   1</c></rc>
    <rc><c>Cu</c><c>   1</c></rc>
    <rc><c>Cu</c><c>   1</c></rc>
    <rc><c>Cu</c><c>   1</c></rc>
    <rc><c>Cu</c><c>   1</c></rc>
    <rc><c>Cu</c><c>   1</c></rc>
    <rc><c>Cu</c><c>   1</c></rc>
    <rc><c>Cu</c><c>   1</c></rc>
    <rc><c>Cu</c><c>   1</c></rc>
    <rc><c>Cu</c><c>   1</c></rc>
    <rc><c>Cu</c><c>   1</c></rc>
    <rc><c>Cu</c><c>   1</c></rc>
    <rc><c>Cu</c><c>   1</c></rc>
    <rc><c>Cu</c><c>   1</c></rc>
    <rc><c>Cu</c><c>   1</c></rc>
    <rc><c>Cu</c><c>   1</c></rc>
    <rc><c>Cu</c><c>   1</c></rc>
    <rc><c>Cu</c><c>   1</c></rc>
    <rc><c>Cu</c><c>   1</c></rc>
    <rc><c>Cu</c><c>   1</c></rc>
    <rc><c>Cu</c><c>   1</c></rc>
    <rc><c>Cu</c><c>   1</c></rc>
    <rc><c>Cu</c><c>   1</c></rc>
    <rc><c>Cu</c><c>   1</c></rc>
    <rc><c>Cu</c><c>   1</c></rc>
    <rc><c>Cu</c><c>   1</c></rc>
    <rc><c>Cu</c><c>   1</c></rc>
    <rc><c>Cu</c><c>   1</c></rc>
    <rc><c>Cu</c><c>   1</c></rc>
    <rc><c>Cu</c><c>   1</c></rc>
    <rc><c>Cu</c><c>   1</c></rc>
    <rc><c>Cu</c><c>   1</c></rc>
    <rc><c>Cu</c><c>   1</c></rc>
    <rc><c>Cu</c><c>   1</c></rc>
    <rc><c>Cu</c><c>   1</c></rc>
    <rc><c>Cu</c><c>   1</c></rc>
    <rc><c>Cu</c><c>   1</c></rc>
    <rc><c>Cu</c><c>   1</c></rc>
    <rc><c>Cu</c><c>   1</c></rc>
    <rc><c>Cu</c><c>   1</c></rc>
    <rc><c>Cu</c><c>   1</c></rc>
    <rc><c>Cu</c><c>   1</c></rc>
    <rc><c>Cu</c><c>   1</c></rc>
    <rc><c>Cu</c><c>   1</c></rc>
    <rc><c>Cu</c><c>   1</c></rc>
    <rc><c>Cu</c><c>   1</c></rc>
    <rc><c>Cu</c><c>   1</c></rc>
    <rc><c>Cu</c><c>   1</c></rc>
    <rc><c>Cu</c><c>   1</c></rc>
    <rc><c>Cu</c><c>   1</c></rc>
    <rc><c>Cu</c><c>   1</c></rc>
    <rc><c>Cu</c><c>   1</c></rc>
    <rc><c>Cu</c><c>   1</c></rc>
    <rc><c>Cu</c><c>   1</c></rc>
    <rc><c>Cu</c><c>   1</c></rc>
    <rc><c>Cu</c><c>   1</c></rc>
    <rc><c>Cu</c><c>   1</c></rc>
    <rc><c>Cu</c><c>   1</c></rc>
    <rc><c>Cu</c><c>   1</c></rc>
    <rc><c>Cu</c><c>   1</c></rc>
    <rc><c>O </c><c>   2</c></rc>
    <rc><c>O </c><c>   2</c></rc>
    <rc><c>O </c><c>   2</c></rc>
    <rc><c>O </c><c>   2</c></rc>
    <rc><c>O </c><c>   2</c></rc>
    <rc><c>O </c><c>   2</c></rc>
    <rc><c>O </c><c>   2</c></rc>
    <rc><c>O </c><c>   2</c></rc>
    <rc><c>O </c><c>   2</c></rc>
    <rc><c>O </c><c>   2</c></rc>
    <rc><c>O </c><c>   2</c></rc>
    <rc><c>O </c><c>   2</c></rc>
    <rc><c>O </c><c>   2</c></rc>
    <rc><c>O </c><c>   2</c></rc>
    <rc><c>O </c><c>   2</c></rc>
    <rc><c>O </c><c>   2</c></rc>
    <rc><c>O </c><c>   2</c></rc>
    <rc><c>O </c><c>   2</c></rc>
    <rc><c>O </c><c>   2</c></rc>
    <rc><c>O </c><c>   2</c></rc>
    <rc><c>O </c><c>   2</c></rc>
    <rc><c>O </c><c>   2</c></rc>
    <rc><c>O </c><c>   2</c></rc>
    <rc><c>O </c><c>   2</c></rc>
    <rc><c>O </c><c>   2</c></rc>
    <rc><c>O </c><c>   2</c></rc>
    <rc><c>O </c><c>   2</c></rc>
    <rc><c>O </c><c>   2</c></rc>
    <rc><c>O </c><c>   2</c></rc>
    <rc><c>O </c><c>   2</c></rc>
    <rc><c>O </c><c>   2</c></rc>
    <rc><c>O </c><c>   2</c></rc>
    <rc><c>O </c><c>   2</c></rc>
    <rc><c>O </c><c>   2</c></rc>
    <rc><c>O </c><c>   2</c></rc>
    <rc><c>O </c><c>   2</c></rc>
    <rc><c>O </c><c>   2</c></rc>
    <rc><c>O </c><c>   2</c></rc>
    <rc><c>O </c><c>   2</c></rc>
    <rc><c>O </c><c>   2</c></rc>
    <rc><c>O </c><c>   2</c></rc>
    <rc><c>O </c><c>   2</c></rc>
    <rc><c>O </c><c>   2</c></rc>
    <rc><c>O </c><c>   2</c></rc>
    <rc><c>O </c><c>   2</c></rc>
    <rc><c>O </c><c>   2</c></rc>
    <rc><c>O </c><c>   2</c></rc>
    <rc><c>O </c><c>   2</c></rc>
    <rc><c>O </c><c>   2</c></rc>
    <rc><c>O </c><c>   2</c></rc>
    <rc><c>O </c><c>   2</c></rc>
    <rc><c>O </c><c>   2</c></rc>
    <rc><c>O </c><c>   2</c></rc>
    <rc><c>O </c><c>   2</c></rc>
   </set>
  </array>
  <array name="atomtypes" >
   <dimension dim="1">type</dimension>
   <field type="int">atomspertype</field>
   <field type="string">element</field>
   <field>mass</field>
   <field>valence</field>
   <field type="string">pseudopotential</field>
   <set>
    <rc><c> 108</c><c>Cu</c><c>     63.54600000</c><c>     11.00000000</c><c> PAW_PBE Cu 05Jan2001                   </c></rc>
    <rc><c>  54</c><c>O </c><c>     16.00000000</c><c>      6.00000000</c><c> PAW_PBE O 08Apr2002                    </c></rc>
   </set>
  </array>
 </atominfo>
 <structure name="initialpos" >
  <crystal>
   <varray name="basis" >
    <v>      12.78000069       0.00000000       0.00000000 </v>
    <v>       0.00000000      12.78000069       0.00000000 </v>
    <v>       0.00000000       0.00000000      12.78000069 </v>
   </varray>
   <i name="volume">   2087.33728842 </i>
   <varray name="rec_basis" >
    <v>       0.07824726       0.00000000       0.00000000 </v>
    <v>       0.00000000       0.07824726       0.00000000 </v>
    <v>       0.00000000       0.00000000       0.07824726 </v>
   </varray>
  </crystal>
  <varray name="positions" >
   <v>       0.08333334       0.08333334       0.08333334 </v>
   <v>       0.91666669       0.91666669       0.08333334 </v>
   <v>       0.91666669       0.08333334       0.91666669 </v>
   <v>       0.08333334       0.91666669       0.91666669 </v>
   <v>       0.25000000       0.25000000       0.08333333 </v>
   <v>       0.25000000       0.08333333       0.25000000 </v>
   <v>       0.08333333       0.25000000       0.25000000 </v>
   <v>       0.08333334       0.08333334       0.41666666 </v>
   <v>       0.91666669       0.91666669       0.41666666 </v>
   <v>       0.91666669       0.08333334       0.58333331 </v>
   <v>       0.08333334       0.91666669       0.58333331 </v>
   <v>       0.41666666       0.08333334       0.08333334 </v>
   <v>       0.41666666       0.91666669       0.91666669 </v>
   <v>       0.58333331       0.91666669       0.08333334 </v>
   <v>       0.58333331       0.08333334       0.91666669 </v>
   <v>       0.08333334       0.41666666       0.08333334 </v>
   <v>       0.91666669       0.41666666       0.91666669 </v>
   <v>       0.08333334       0.58333331       0.91666669 </v>
   <v>       0.91666669       0.58333331       0.08333334 </v>
   <v>       0.25000000       0.25000000       0.75000000 </v>
   <v>       0.08333333       0.08333333       0.75000000 </v>
   <v>       0.25000000       0.08333333       0.58333331 </v>
   <v>       0.08333333       0.25000000       0.58333331 </v>
   <v>       0.25000000       0.58333331       0.08333333 </v>
   <v>       0.08333333       0.58333331       0.25000000 </v>
   <v>       0.08333333       0.75000000       0.08333333 </v>
   <v>       0.25000000       0.75000000       0.25000000 </v>
   <v>       0.58333331       0.25000000       0.08333333 </v>
   <v>       0.58333331       0.08333333       0.25000000 </v>
   <v>       0.75000000       0.25000000       0.25000000 </v>
   <v>       0.75000000       0.08333333       0.08333333 </v>
   <v>       0.91666669       0.91666669       0.75000000 </v>
   <v>       0.91666669       0.08333334       0.25000000 </v>
   <v>       0.08333334       0.91666669       0.25000000 </v>
   <v>       0.75000000       0.91666669       0.91666669 </v>
   <v>       0.25000000       0.91666669       0.08333334 </v>
   <v>       0.25000000       0.08333334       0.91666669 </v>
   <v>       0.91666669       0.75000000       0.91666669 </v>
   <v>       0.08333334       0.25000000       0.91666669 </v>
   <v>       0.91666669       0.25000000       0.08333334 </v>
   <v>       0.25000000       0.25000000       0.41666666 </v>
   <v>       0.25000000       0.41666666       0.25000000 </v>
   <v>       0.41666666       0.25000000       0.25000000 </v>
   <v>       0.08333334       0.41666666       0.41666666 </v>
   <v>       0.91666669       0.58333331       0.41666666 </v>
   <v>       0.91666669       0.41666666       0.58333331 </v>
   <v>       0.08333334       0.58333331       0.58333331 </v>
   <v>       0.41666666       0.08333334       0.41666666 </v>
   <v>       0.41666666       0.91666669       0.58333331 </v>
   <v>       0.58333331       0.91666669       0.41666666 </v>
   <v>       0.58333331       0.08333334       0.58333331 </v>
   <v>       0.41666666       0.41666666       0.08333334 </v>
   <v>       0.58333331       0.41666666       0.91666669 </v>
   <v>       0.41666666       0.58333331       0.91666669 </v>
   <v>       0.58333331       0.58333331       0.08333334 </v>
   <v>       0.58333331       0.25000000       0.75000000 </v>
   <v>       0.75000000       0.08333333       0.75000000 </v>
   <v>       0.75000000       0.25000000       0.58333331 </v>
   <v>       0.25000000       0.58333331       0.75000000 </v>
   <v>       0.08333333       0.75000000       0.75000000 </v>
   <v>       0.25000000       0.75000000       0.58333331 </v>
   <v>       0.58333331       0.75000000       0.25000000 </v>
   <v>       0.75000000       0.58333331       0.25000000 </v>
   <v>       0.75000000       0.75000000       0.08333333 </v>
   <v>       0.08333334       0.41666666       0.75000000 </v>
   <v>       0.91666669       0.58333331       0.75000000 </v>
   <v>       0.91666669       0.41666666       0.25000000 </v>
   <v>       0.75000000       0.08333334       0.41666666 </v>
   <v>       0.75000000       0.91666669       0.58333331 </v>
   <v>       0.25000000       0.91666669       0.41666666 </v>
   <v>       0.41666666       0.75000000       0.08333334 </v>
   <v>       0.58333331       0.75000000       0.91666669 </v>
   <v>       0.41666666       0.25000000       0.91666669 </v>
   <v>       0.58333331       0.25000000       0.41666666 </v>
   <v>       0.75000000       0.25000000       0.91666669 </v>
   <v>       0.25000000       0.91666669       0.75000000 </v>
   <v>       0.25000000       0.41666666       0.58333331 </v>
   <v>       0.91666669       0.75000000       0.25000000 </v>
   <v>       0.41666666       0.58333331       0.25000000 </v>
   <v>       0.08333333       0.75000000       0.41666666 </v>
   <v>       0.25000000       0.58333331       0.41666666 </v>
   <v>       0.25000000       0.75000000       0.91666669 </v>
   <v>       0.41666666       0.08333333       0.75000000 </v>
   <v>       0.41666666       0.25000000       0.58333331 </v>
   <v>       0.91666669       0.25000000       0.75000000 </v>
   <v>       0.75000000       0.41666666       0.08333333 </v>
   <v>       0.58333331       0.41666666       0.25000000 </v>
   <v>       0.75000000       0.91666669       0.25000000 </v>
   <v>       0.58333331       0.91666669       0.75000000 </v>
   <v>       0.41666666       0.91666669       0.25000000 </v>
   <v>       0.91666669       0.25000000       0.41666666 </v>
   <v>       0.91666669       0.75000000       0.58333331 </v>
   <v>       0.25000000       0.41666666       0.91666669 </v>
   <v>       0.75000000       0.58333331       0.91666669 </v>
   <v>       0.41666666       0.41666666       0.41666666 </v>
   <v>       0.58333331       0.58333331       0.41666666 </v>
   <v>       0.58333331       0.41666666       0.58333331 </v>
   <v>       0.41666666       0.58333331       0.58333331 </v>
   <v>       0.58333331       0.58333331       0.75000000 </v>
   <v>       0.75000000       0.75000000       0.75000000 </v>
   <v>       0.58333331       0.75000000       0.58333331 </v>
   <v>       0.75000000       0.58333331       0.58333331 </v>
   <v>       0.41666666       0.41666666       0.75000000 </v>
   <v>       0.75000000       0.41666666       0.41666666 </v>
   <v>       0.41666666       0.75000000       0.41666666 </v>
   <v>       0.75000000       0.75000000       0.41666666 </v>
   <v>       0.75000000       0.41666666       0.75000000 </v>
   <v>       0.41666666       0.75000000       0.75000000 </v>
   <v>       0.00000000       0.00000000       0.00000000 </v>
   <v>       0.16666667       0.16666667       0.16666667 </v>
   <v>       0.00000000       0.00000000       0.33333334 </v>
   <v>       0.00000000       0.00000000       0.66666669 </v>
   <v>       0.33333334       0.00000000       0.00000000 </v>
   <v>       0.66666669       0.00000000       0.00000000 </v>
   <v>       0.00000000       0.33333334       0.00000000 </v>
   <v>       0.00000000       0.66666669       0.00000000 </v>
   <v>       0.16666667       0.16666667       0.83333331 </v>
   <v>       0.16666667       0.16666667       0.50000000 </v>
   <v>       0.16666667       0.50000000       0.16666667 </v>
   <v>       0.16666667       0.83333331       0.16666667 </v>
   <v>       0.50000000       0.16666667       0.16666667 </v>
   <v>       0.83333331       0.16666667       0.16666667 </v>
   <v>       0.00000000       0.33333334       0.33333334 </v>
   <v>       0.00000000       0.66666669       0.33333334 </v>
   <v>       0.00000000       0.33333334       0.66666669 </v>
   <v>       0.00000000       0.66666669       0.66666669 </v>
   <v>       0.33333334       0.00000000       0.33333334 </v>
   <v>       0.33333334       0.00000000       0.66666669 </v>
   <v>       0.66666669       0.00000000       0.33333334 </v>
   <v>       0.66666669       0.00000000       0.66666669 </v>
   <v>       0.33333334       0.33333334       0.00000000 </v>
   <v>       0.66666669       0.33333334       0.00000000 </v>
   <v>       0.33333334       0.66666669       0.00000000 </v>
   <v>       0.66666669       0.66666669       0.00000000 </v>
   <v>       0.50000000       0.16666667       0.83333331 </v>
   <v>       0.83333331       0.16666667       0.83333331 </v>
   <v>       0.50000000       0.16666667       0.50000000 </v>
   <v>       0.83333331       0.16666667       0.50000000 </v>
   <v>       0.16666667       0.50000000       0.83333331 </v>
   <v>       0.16666667       0.50000000       0.50000000 </v>
   <v>       0.16666667       0.83333331       0.83333331 </v>
   <v>       0.16666667       0.83333331       0.50000000 </v>
   <v>       0.50000000       0.50000000       0.16666667 </v>
   <v>       0.50000000       0.83333331       0.16666667 </v>
   <v>       0.83333331       0.50000000       0.16666667 </v>
   <v>       0.83333331       0.83333331       0.16666667 </v>
   <v>       0.33333334       0.33333334       0.33333334 </v>
   <v>       0.66666669       0.66666669       0.33333334 </v>
   <v>       0.66666669       0.33333334       0.66666669 </v>
   <v>       0.33333334       0.66666669       0.66666669 </v>
   <v>       0.50000000       0.50000000       0.83333331 </v>
   <v>       0.83333331       0.83333331       0.83333331 </v>
   <v>       0.50000000       0.83333331       0.50000000 </v>
   <v>       0.83333331       0.50000000       0.50000000 </v>
   <v>       0.33333334       0.33333334       0.66666669 </v>
   <v>       0.66666669       0.66666669       0.66666669 </v>
   <v>       0.66666669       0.33333334       0.33333334 </v>
   <v>       0.33333334       0.66666669       0.33333334 </v>
   <v>       0.50000000       0.50000000       0.50000000 </v>
   <v>       0.83333331       0.83333331       0.50000000 </v>
   <v>       0.50000000       0.83333331       0.83333331 </v>
   <v>       0.83333331       0.50000000       0.83333331 </v>
  </varray>
 </structure>
 <calculation>
  <scstep>
   <time name="dav">   44.19   44.18</time>
   <time name="total">   44.27   44.29</time>
   <energy>
    <i name="alphaZ">   9992.18267556 </i>
    <i name="ewald">-122881.33495203 </i>
    <i name="hartreedc"> -50368.84895901 </i>
    <i name="XCdc">   6198.19958033 </i>
    <i name="pawpsdc"> 130145.56131649 </i>
    <i name="pawaedc">-145800.11349439 </i>
    <i name="eentropy">     -0.07251211 </i>
    <i name="bandstr">  15135.40491895 </i>
    <i name="atom"> 173566.79152315 </i>
    <i name="e_fr_energy">  15987.77009694 </i>
    <i name="e_wo_entrp">  15987.84260905 </i>
    <i name="e_0_energy">  15987.80635299 </i>
   </energy>
  </scstep>
  <scstep>
   <time name="dav">   43.60   43.60</time>
   <time name="total">   43.61   43.60</time>
   <energy>
    <i name="e_fr_energy">   2888.12530456 </i>
    <i name="e_wo_entrp">   2888.29443810 </i>
    <i name="e_0_energy">   2888.20987133 </i>
   </energy>
  </scstep>
  <scstep>
   <time name="dav">   44.29   44.29</time>
   <time name="total">   44.30   44.29</time>
   <energy>
    <i name="e_fr_energy">   -357.01468677 </i>
    <i name="e_wo_entrp">   -356.96685093 </i>
    <i name="e_0_energy">   -356.99076885 </i>
   </energy>
  </scstep>
  <scstep>
   <time name="dav">   44.37   44.36</time>
   <time name="total">   44.37   44.37</time>
   <energy>
    <i name="e_fr_energy">   -873.58681601 </i>
    <i name="e_wo_entrp">   -873.56041127 </i>
    <i name="e_0_energy">   -873.57361364 </i>
   </energy>
  </scstep>
  <scstep>
   <time name="dav">   43.78   43.77</time>
   <time name="total">   44.47   44.47</time>
   <energy>
    <i name="e_fr_energy">   -896.53755722 </i>
    <i name="e_wo_entrp">   -896.51303844 </i>
    <i name="e_0_energy">   -896.52529783 </i>
   </energy>
  </scstep>
  <scstep>
   <time name="diag">    9.71    9.71</time>
   <time name="diis">    7.72    7.72</time>
   <time name="orth">    2.73    2.73</time>
   <time name="total">   20.93   20.93</time>
   <energy>
    <i name="e_fr_energy">   -822.44282711 </i>
    <i name="e_wo_entrp">   -822.44281434 </i>
    <i name="e_0_energy">   -822.44282073 </i>
   </energy>
  </scstep>
  <scstep>
   <time name="diag">    9.37    9.37</time>
   <time name="diis">    7.73    7.73</time>
   <time name="orth">    2.73    2.73</time>
   <time name="total">   20.59   20.59</time>
   <energy>
    <i name="e_fr_energy">   -736.17910633 </i>
    <i name="e_wo_entrp">   -736.17906018 </i>
    <i name="e_0_energy">   -736.17908326 </i>
   </energy>
  </scstep>
  <scstep>
   <time name="diag">    9.27    9.27</time>
   <time name="diis">    7.86    7.86</time>
   <time name="orth">    2.74    2.74</time>
   <time name="total">   20.63   20.63</time>
   <energy>
    <i name="e_fr_energy">   -734.89075514 </i>
    <i name="e_wo_entrp">   -734.89069699 </i>
    <i name="e_0_energy">   -734.89072607 </i>
   </energy>
  </scstep>
  <scstep>
   <time name="diag">    9.24    9.23</time>
   <time name="diis">    7.85    7.85</time>
   <time name="orth">    2.74    2.74</time>
   <time name="total">   20.58   20.58</time>
   <energy>
    <i name="e_fr_energy">   -734.23424758 </i>
    <i name="e_wo_entrp">   -734.23420728 </i>
    <i name="e_0_energy">   -734.23422743 </i>
   </energy>
  </scstep>
  <scstep>
   <time name="diag">    9.19    9.19</time>
   <time name="diis">    7.72    7.72</time>
   <time name="orth">    2.74    2.74</time>
   <time name="total">   20.41   20.42</time>
   <energy>
    <i name="e_fr_energy">   -734.13351494 </i>
    <i name="e_wo_entrp">   -734.13347639 </i>
    <i name="e_0_energy">   -734.13349567 </i>
   </energy>
  </scstep>
  <scstep>
   <time name="diag">    9.24    9.24</time>
   <time name="diis">    7.79    7.78</time>
   <time name="orth">    2.74    2.74</time>
   <time name="total">   20.53   20.53</time>
   <energy>
    <i name="e_fr_energy">   -734.13658175 </i>
    <i name="e_wo_entrp">   -734.13654362 </i>
    <i name="e_0_energy">   -734.13656268 </i>
   </energy>
  </scstep>
  <scstep>
   <time name="diag">    9.19    9.19</time>
   <time name="diis">    8.00    8.00</time>
   <time name="orth">    2.74    2.74</time>
   <time name="total">   20.69   20.69</time>
   <energy>
    <i name="e_fr_energy">   -734.13606332 </i>
    <i name="e_wo_entrp">   -734.13602549 </i>
    <i name="e_0_energy">   -734.13604440 </i>
   </energy>
  </scstep>
  <scstep>
   <time name="diag">    9.18    9.18</time>
   <time name="diis">    7.98    7.98</time>
   <time name="orth">    2.74    2.74</time>
   <time name="total">   20.65   20.66</time>
   <energy>
    <i name="e_fr_energy">   -734.13607612 </i>
    <i name="e_wo_entrp">   -734.13603846 </i>
    <i name="e_0_energy">   -734.13605729 </i>
   </energy>
  </scstep>
  <scstep>
   <time name="diag">    9.17    9.17</time>
   <time name="diis">    7.98    7.98</time>
   <time name="orth">    2.97    2.97</time>
   <time name="total">   20.88   20.88</time>
   <energy>
    <i name="e_fr_energy">   -734.13601468 </i>
    <i name="e_wo_entrp">   -734.13597698 </i>
    <i name="e_0_energy">   -734.13599583 </i>
   </energy>
  </scstep>
  <scstep>
   <time name="diag">    9.15    9.15</time>
   <time name="diis">    6.30    6.30</time>
   <time name="orth">    2.74    2.74</time>
   <time name="total">   18.95   18.95</time>
   <energy>
    <i name="e_fr_energy">   -734.13599845 </i>
    <i name="e_wo_entrp">   -734.13596074 </i>
    <i name="e_0_energy">   -734.13597960 </i>
   </energy>
  </scstep>
  <scstep>
   <time name="diag">    9.19    9.19</time>
   <time name="diis">    4.83    4.83</time>
   <time name="orth">    2.75    2.75</time>
   <time name="total">   17.54   17.54</time>
   <energy>
    <i name="e_fr_energy">   -734.13600052 </i>
    <i name="e_wo_entrp">   -734.13596281 </i>
    <i name="e_0_energy">   -734.13598167 </i>
   </energy>
  </scstep>
  <scstep>
   <time name="diag">    9.16    9.16</time>
   <time name="diis">    4.56    4.55</time>
   <time name="orth">    2.76    2.76</time>
   <time name="total">   16.55   16.55</time>
   <energy>
    <i name="alphaZ">   9992.18267556 </i>
    <i name="ewald">-122881.33495203 </i>
    <i name="hartreedc"> -49108.85181533 </i>
    <i name="XCdc">   6152.11975572 </i>
    <i name="pawpsdc"> 134944.15824740 </i>
    <i name="pawaedc">-150777.54030481 </i>
    <i name="eentropy">     -0.00003772 </i>
    <i name="bandstr">  -2621.66109274 </i>
    <i name="atom"> 173566.79152315 </i>
    <i name="e_fr_energy">   -734.13600080 </i>
    <i name="e_wo_entrp">   -734.13596309 </i>
    <i name="e_0_energy">   -734.13598195 </i>
   </energy>
  </scstep>
  <structure>
   <crystal>
    <varray name="basis" >
     <v>      12.78000069       0.00000000       0.00000000 </v>
     <v>       0.00000000      12.78000069       0.00000000 </v>
     <v>       0.00000000       0.00000000      12.78000069 </v>
    </varray>
    <i name="volume">   2087.33728842 </i>
    <varray name="rec_basis" >
     <v>       0.07824726       0.00000000       0.00000000 </v>
     <v>       0.00000000       0.07824726       0.00000000 </v>
     <v>       0.00000000       0.00000000       0.07824726 </v>
    </varray>
   </crystal>
   <varray name="positions" >
    <v>       0.08333334       0.08333334       0.08333334 </v>
    <v>       0.91666669       0.91666669       0.08333334 </v>
    <v>       0.91666669       0.08333334       0.91666669 </v>
    <v>       0.08333334       0.91666669       0.91666669 </v>
    <v>       0.25000000       0.25000000       0.08333333 </v>
    <v>       0.25000000       0.08333333       0.25000000 </v>
    <v>       0.08333333       0.25000000       0.25000000 </v>
    <v>       0.08333334       0.08333334       0.41666666 </v>
    <v>       0.91666669       0.91666669       0.41666666 </v>
    <v>       0.91666669       0.08333334       0.58333331 </v>
    <v>       0.08333334       0.91666669       0.58333331 </v>
    <v>       0.41666666       0.08333334       0.08333334 </v>
    <v>       0.41666666       0.91666669       0.91666669 </v>
    <v>       0.58333331       0.91666669       0.08333334 </v>
    <v>       0.58333331       0.08333334       0.91666669 </v>
    <v>       0.08333334       0.41666666       0.08333334 </v>
    <v>       0.91666669       0.41666666       0.91666669 </v>
    <v>       0.08333334       0.58333331       0.91666669 </v>
    <v>       0.91666669       0.58333331       0.08333334 </v>
    <v>       0.25000000       0.25000000       0.75000000 </v>
    <v>       0.08333333       0.08333333       0.75000000 </v>
    <v>       0.25000000       0.08333333       0.58333331 </v>
    <v>       0.08333333       0.25000000       0.58333331 </v>
    <v>       0.25000000       0.58333331       0.08333333 </v>
    <v>       0.08333333       0.58333331       0.25000000 </v>
    <v>       0.08333333       0.75000000       0.08333333 </v>
    <v>       0.25000000       0.75000000       0.25000000 </v>
    <v>       0.58333331       0.25000000       0.08333333 </v>
    <v>       0.58333331       0.08333333       0.25000000 </v>
    <v>       0.75000000       0.25000000       0.25000000 </v>
    <v>       0.75000000       0.08333333       0.08333333 </v>
    <v>       0.91666669       0.91666669       0.75000000 </v>
    <v>       0.91666669       0.08333334       0.25000000 </v>
    <v>       0.08333334       0.91666669       0.25000000 </v>
    <v>       0.75000000       0.91666669       0.91666669 </v>
    <v>       0.25000000       0.91666669       0.08333334 </v>
    <v>       0.25000000       0.08333334       0.91666669 </v>
    <v>       0.91666669       0.75000000       0.91666669 </v>
    <v>       0.08333334       0.25000000       0.91666669 </v>
    <v>       0.91666669       0.25000000       0.08333334 </v>
    <v>       0.25000000       0.25000000       0.41666666 </v>
    <v>       0.25000000       0.41666666       0.25000000 </v>
    <v>       0.41666666       0.25000000       0.25000000 </v>
    <v>       0.08333334       0.41666666       0.41666666 </v>
    <v>       0.91666669       0.58333331       0.41666666 </v>
    <v>       0.91666669       0.41666666       0.58333331 </v>
    <v>       0.08333334       0.58333331       0.58333331 </v>
    <v>       0.41666666       0.08333334       0.41666666 </v>
    <v>       0.41666666       0.91666669       0.58333331 </v>
    <v>       0.58333331       0.91666669       0.41666666 </v>
    <v>       0.58333331       0.08333334       0.58333331 </v>
    <v>       0.41666666       0.41666666       0.08333334 </v>
    <v>       0.58333331       0.41666666       0.91666669 </v>
    <v>       0.41666666       0.58333331       0.91666669 </v>
    <v>       0.58333331       0.58333331       0.08333334 </v>
    <v>       0.58333331       0.25000000       0.75000000 </v>
    <v>       0.75000000       0.08333333       0.75000000 </v>
    <v>       0.75000000       0.25000000       0.58333331 </v>
    <v>       0.25000000       0.58333331       0.75000000 </v>
    <v>       0.08333333       0.75000000       0.75000000 </v>
    <v>       0.25000000       0.75000000       0.58333331 </v>
    <v>       0.58333331       0.75000000       0.25000000 </v>
    <v>       0.75000000       0.58333331       0.25000000 </v>
    <v>       0.75000000       0.75000000       0.08333333 </v>
    <v>       0.08333334       0.41666666       0.75000000 </v>
    <v>       0.91666669       0.58333331       0.75000000 </v>
    <v>       0.91666669       0.41666666       0.25000000 </v>
    <v>       0.75000000       0.08333334       0.41666666 </v>
    <v>       0.75000000       0.91666669       0.58333331 </v>
    <v>       0.25000000       0.91666669       0.41666666 </v>
    <v>       0.41666666       0.75000000       0.08333334 </v>
    <v>       0.58333331       0.75000000       0.91666669 </v>
    <v>       0.41666666       0.25000000       0.91666669 </v>
    <v>       0.58333331       0.25000000       0.41666666 </v>
    <v>       0.75000000       0.25000000       0.91666669 </v>
    <v>       0.25000000       0.91666669       0.75000000 </v>
    <v>       0.25000000       0.41666666       0.58333331 </v>
    <v>       0.91666669       0.75000000       0.25000000 </v>
    <v>       0.41666666       0.58333331       0.25000000 </v>
    <v>       0.08333333       0.75000000       0.41666666 </v>
    <v>       0.25000000       0.58333331       0.41666666 </v>
    <v>       0.25000000       0.75000000       0.91666669 </v>
    <v>       0.41666666       0.08333333       0.75000000 </v>
    <v>       0.41666666       0.25000000       0.58333331 </v>
    <v>       0.91666669       0.25000000       0.75000000 </v>
    <v>       0.75000000       0.41666666       0.08333333 </v>
    <v>       0.58333331       0.41666666       0.25000000 </v>
    <v>       0.75000000       0.91666669       0.25000000 </v>
    <v>       0.58333331       0.91666669       0.75000000 </v>
    <v>       0.41666666       0.91666669       0.25000000 </v>
    <v>       0.91666669       0.25000000       0.41666666 </v>
    <v>       0.91666669       0.75000000       0.58333331 </v>
    <v>       0.25000000       0.41666666       0.91666669 </v>
    <v>       0.75000000       0.58333331       0.91666669 </v>
    <v>       0.41666666       0.41666666       0.41666666 </v>
    <v>       0.58333331       0.58333331       0.41666666 </v>
    <v>       0.58333331       0.41666666       0.58333331 </v>
    <v>       0.41666666       0.58333331       0.58333331 </v>
    <v>       0.58333331       0.58333331       0.75000000 </v>
    <v>       0.75000000       0.75000000       0.75000000 </v>
    <v>       0.58333331       0.75000000       0.58333331 </v>
    <v>       0.75000000       0.58333331       0.58333331 </v>
    <v>       0.41666666       0.41666666       0.75000000 </v>
    <v>       0.75000000       0.41666666       0.41666666 </v>
    <v>       0.41666666       0.75000000       0.41666666 </v>
    <v>       0.75000000       0.75000000       0.41666666 </v>
    <v>       0.75000000       0.41666666       0.75000000 </v>
    <v>       0.41666666       0.75000000       0.75000000 </v>
    <v>       0.00000000       0.00000000       0.00000000 </v>
    <v>       0.16666667       0.16666667       0.16666667 </v>
    <v>       0.00000000       0.00000000       0.33333334 </v>
    <v>       0.00000000       0.00000000       0.66666669 </v>
    <v>       0.33333334       0.00000000       0.00000000 </v>
    <v>       0.66666669       0.00000000       0.00000000 </v>
    <v>       0.00000000       0.33333334       0.00000000 </v>
    <v>       0.00000000       0.66666669       0.00000000 </v>
    <v>       0.16666667       0.16666667       0.83333331 </v>
    <v>       0.16666667       0.16666667       0.50000000 </v>
    <v>       0.16666667       0.50000000       0.16666667 </v>
    <v>       0.16666667       0.83333331       0.16666667 </v>
    <v>       0.50000000       0.16666667       0.16666667 </v>
    <v>       0.83333331       0.16666667       0.16666667 </v>
    <v>       0.00000000       0.33333334       0.33333334 </v>
    <v>       0.00000000       0.66666669       0.33333334 </v>
    <v>       0.00000000       0.33333334       0.66666669 </v>
    <v>       0.00000000       0.66666669       0.66666669 </v>
    <v>       0.33333334       0.00000000       0.33333334 </v>
    <v>       0.33333334       0.00000000       0.66666669 </v>
    <v>       0.66666669       0.00000000       0.33333334 </v>
    <v>       0.66666669       0.00000000       0.66666669 </v>
    <v>       0.33333334       0.33333334       0.00000000 </v>
    <v>       0.66666669       0.33333334       0.00000000 </v>
    <v>       0.33333334       0.66666669       0.00000000 </v>
    <v>       0.66666669       0.66666669       0.00000000 </v>
    <v>       0.50000000       0.16666667       0.83333331 </v>
    <v>       0.83333331       0.16666667       0.83333331 </v>
    <v>       0.50000000       0.16666667       0.50000000 </v>
    <v>       0.83333331       0.16666667       0.50000000 </v>
    <v>       0.16666667       0.50000000       0.83333331 </v>
    <v>       0.16666667       0.50000000       0.50000000 </v>
    <v>       0.16666667       0.83333331       0.83333331 </v>
    <v>       0.16666667       0.83333331       0.50000000 </v>
    <v>       0.50000000       0.50000000       0.16666667 </v>
    <v>       0.50000000       0.83333331       0.16666667 </v>
    <v>       0.83333331       0.50000000       0.16666667 </v>
    <v>       0.83333331       0.83333331       0.16666667 </v>
    <v>       0.33333334       0.33333334       0.33333334 </v>
    <v>       0.66666669       0.66666669       0.33333334 </v>
    <v>       0.66666669       0.33333334       0.66666669 </v>
    <v>       0.33333334       0.66666669       0.66666669 </v>
    <v>       0.50000000       0.50000000       0.83333331 </v>
    <v>       0.83333331       0.83333331       0.83333331 </v>
    <v>       0.50000000       0.83333331       0.50000000 </v>
    <v>       0.83333331       0.50000000       0.50000000 </v>
    <v>       0.33333334       0.33333334       0.66666669 </v>
    <v>       0.66666669       0.66666669       0.66666669 </v>
    <v>       0.66666669       0.33333334       0.33333334 </v>
    <v>       0.33333334       0.66666669       0.33333334 </v>
    <v>       0.50000000       0.50000000       0.50000000 </v>
    <v>       0.83333331       0.83333331       0.50000000 </v>
    <v>       0.50000000       0.83333331       0.83333331 </v>
    <v>       0.83333331       0.50000000       0.83333331 </v>
   </varray>
  </structure>
  <varray name="forces" >
   <v>      -0.00000000      -0.00000000      -0.00000000 </v>
   <v>       0.00000000      -0.00000000       0.00000000 </v>
   <v>       0.00000000      -0.00000000       0.00000000 </v>
   <v>       0.00000000       0.00000000       0.00000000 </v>
   <v>       0.00000000       0.00000000       0.00000000 </v>
   <v>      -0.00000000      -0.00000000       0.00000000 </v>
   <v>       0.00000000       0.00000000       0.00000000 </v>
   <v>      -0.00000000      -0.00000000       0.00000000 </v>
   <v>      -0.00000000      -0.00000000       0.00000000 </v>
   <v>      -0.00000000       0.00000000      -0.00000000 </v>
   <v>       0.00000000       0.00000000       0.00000000 </v>
   <v>       0.00000000      -0.00000000      -0.00000000 </v>
   <v>       0.00000000       0.00000000       0.00000000 </v>
   <v>      -0.00000000      -0.00000000       0.00000000 </v>
   <v>       0.00000000      -0.00000000      -0.00000000 </v>
   <v>       0.00000000      -0.00000000       0.00000000 </v>
   <v>       0.00000000       0.00000000      -0.00000000 </v>
   <v>       0.00000000      -0.00000000       0.00000000 </v>
   <v>       0.00000000      -0.00000000       0.00000000 </v>
   <v>       0.00000000       0.00000000       0.00000000 </v>
   <v>      -0.00000000       0.00000000       0.00000000 </v>
   <v>      -0.00000000      -0.00000000      -0.00000000 </v>
   <v>       0.00000000      -0.00000000      -0.00000000 </v>
   <v>       0.00000000       0.00000000       0.00000000 </v>
   <v>      -0.00000000       0.00000000       0.00000000 </v>
   <v>      -0.00000000       0.00000000      -0.00000000 </v>
   <v>      -0.00000000       0.00000000      -0.00000000 </v>
   <v>      -0.00000000       0.00000000      -0.00000000 </v>
   <v>       0.00000000      -0.00000000       0.00000000 </v>
   <v>       0.00000000       0.00000000       0.00000000 </v>
   <v>      -0.00000000      -0.00000000      -0.00000000 </v>
   <v>      -0.00000000      -0.00000000       0.00000000 </v>
   <v>       0.00000000      -0.00000000       0.00000000 </v>
   <v>       0.00000000       0.00000000       0.00000000 </v>
   <v>       0.00000000       0.00000000       0.00000000 </v>
   <v>       0.00000000       0.00000000       0.00000000 </v>
   <v>      -0.00000000      -0.00000000       0.00000000 </v>
   <v>       0.00000000       0.00000000       0.00000000 </v>
   <v>       0.00000000       0.00000000      -0.00000000 </v>
   <v>      -0.00000000      -0.00000000      -0.00000000 </v>
   <v>       0.00000000       0.00000000       0.00000000 </v>
   <v>      -0.00000000      -0.00000000       0.00000000 </v>
   <v>       0.00000000       0.00000000       0.00000000 </v>
   <v>      -0.00000000      -0.00000000       0.00000000 </v>
   <v>      -0.00000000      -0.00000000       0.00000000 </v>
   <v>       0.00000000       0.00000000      -0.00000000 </v>
   <v>      -0.00000000       0.00000000      -0.00000000 </v>
   <v>      -0.00000000      -0.00000000      -0.00000000 </v>
   <v>       0.00000000      -0.00000000      -0.00000000 </v>
   <v>       0.00000000      -0.00000000      -0.00000000 </v>
   <v>       0.00000000      -0.00000000      -0.00000000 </v>
   <v>       0.00000000       0.00000000      -0.00000000 </v>
   <v>      -0.00000000       0.00000000      -0.00000000 </v>
   <v>       0.00000000      -0.00000000       0.00000000 </v>
   <v>       0.00000000      -0.00000000       0.00000000 </v>
   <v>      -0.00000000      -0.00000000       0.00000000 </v>
   <v>       0.00000000      -0.00000000      -0.00000000 </v>
   <v>       0.00000000      -0.00000000      -0.00000000 </v>
   <v>       0.00000000      -0.00000000       0.00000000 </v>
   <v>       0.00000000      -0.00000000       0.00000000 </v>
   <v>      -0.00000000       0.00000000       0.00000000 </v>
   <v>       0.00000000       0.00000000       0.00000000 </v>
   <v>       0.00000000      -0.00000000       0.00000000 </v>
   <v>      -0.00000000       0.00000000      -0.00000000 </v>
   <v>       0.00000000      -0.00000000       0.00000000 </v>
   <v>      -0.00000000      -0.00000000       0.00000000 </v>
   <v>       0.00000000      -0.00000000      -0.00000000 </v>
   <v>       0.00000000      -0.00000000       0.00000000 </v>
   <v>       0.00000000       0.00000000      -0.00000000 </v>
   <v>       0.00000000      -0.00000000      -0.00000000 </v>
   <v>      -0.00000000       0.00000000      -0.00000000 </v>
   <v>      -0.00000000      -0.00000000       0.00000000 </v>
   <v>       0.00000000       0.00000000       0.00000000 </v>
   <v>      -0.00000000       0.00000000      -0.00000000 </v>
   <v>      -0.00000000       0.00000000       0.00000000 </v>
   <v>       0.00000000       0.00000000      -0.00000000 </v>
   <v>       0.00000000       0.00000000      -0.00000000 </v>
   <v>      -0.00000000       0.00000000      -0.00000000 </v>
   <v>       0.00000000      -0.00000000       0.00000000 </v>
   <v>      -0.00000000       0.00000000      -0.00000000 </v>
   <v>       0.00000000       0.00000000       0.00000000 </v>
   <v>       0.00000000       0.00000000       0.00000000 </v>
   <v>       0.00000000      -0.00000000      -0.00000000 </v>
   <v>       0.00000000      -0.00000000      -0.00000000 </v>
   <v>       0.00000000      -0.00000000      -0.00000000 </v>
   <v>      -0.00000000       0.00000000      -0.00000000 </v>
   <v>       0.00000000       0.00000000      -0.00000000 </v>
   <v>      -0.00000000       0.00000000       0.00000000 </v>
   <v>      -0.00000000      -0.00000000      -0.00000000 </v>
   <v>       0.00000000       0.00000000       0.00000000 </v>
   <v>      -0.00000000       0.00000000       0.00000000 </v>
   <v>       0.00000000       0.00000000       0.00000000 </v>
   <v>      -0.00000000      -0.00000000      -0.00000000 </v>
   <v>       0.00000000       0.00000000      -0.00000000 </v>
   <v>       0.00000000      -0.00000000       0.00000000 </v>
   <v>      -0.00000000      -0.00000000       0.00000000 </v>
   <v>       0.00000000       0.00000000      -0.00000000 </v>
   <v>       0.00000000      -0.00000000      -0.00000000 </v>
   <v>      -0.00000000      -0.00000000      -0.00000000 </v>
   <v>      -0.00000000      -0.00000000       0.00000000 </v>
   <v>      -0.00000000       0.00000000       0.00000000 </v>
   <v>       0.00000000       0.00000000      -0.00000000 </v>
   <v>      -0.00000000       0.00000000       0.00000000 </v>
   <v>       0.00000000       0.00000000      -0.00000000 </v>
   <v>      -0.00000000       0.00000000       0.00000000 </v>
   <v>       0.00000000       0.00000000       0.00000000 </v>
   <v>      -0.00000000       0.00000000       0.00000000 </v>
   <v>      -0.00000000       0.00000000       0.00000000 </v>
   <v>      -0.00000000      -0.00000000       0.00000000 </v>
   <v>      -0.00000000      -0.00000000      -0.00000000 </v>
   <v>      -0.00000000      -0.00000000      -0.00000000 </v>
   <v>      -0.00000000      -0.00000000      -0.00000000 </v>
   <v>      -0.00000000      -0.00000000      -0.00000000 </v>
   <v>      -0.00000000       0.00000000      -0.00000000 </v>
   <v>      -0.00000000      -0.00000000      -0.00000000 </v>
   <v>      -0.00000000      -0.00000000       0.00000000 </v>
   <v>      -0.00000000       0.00000000      -0.00000000 </v>
   <v>      -0.00000000      -0.00000000       0.00000000 </v>
   <v>      -0.00000000       0.00000000      -0.00000000 </v>
   <v>      -0.00000000      -0.00000000      -0.00000000 </v>
   <v>      -0.00000000      -0.00000000      -0.00000000 </v>
   <v>      -0.00000000       0.00000000      -0.00000000 </v>
   <v>      -0.00000000       0.00000000      -0.00000000 </v>
   <v>      -0.00000000       0.00000000      -0.00000000 </v>
   <v>      -0.00000000      -0.00000000      -0.00000000 </v>
   <v>      -0.00000000      -0.00000000      -0.00000000 </v>
   <v>      -0.00000000       0.00000000      -0.00000000 </v>
   <v>      -0.00000000      -0.00000000      -0.00000000 </v>
   <v>      -0.00000000       0.00000000      -0.00000000 </v>
   <v>      -0.00000000       0.00000000      -0.00000000 </v>
   <v>      -0.00000000      -0.00000000      -0.00000000 </v>
   <v>      -0.00000000      -0.00000000      -0.00000000 </v>
   <v>      -0.00000000      -0.00000000      -0.00000000 </v>
   <v>      -0.00000000      -0.00000000      -0.00000000 </v>
   <v>      -0.00000000      -0.00000000       0.00000000 </v>
   <v>      -0.00000000       0.00000000       0.00000000 </v>
   <v>      -0.00000000       0.00000000       0.00000000 </v>
   <v>      -0.00000000       0.00000000       0.00000000 </v>
   <v>       0.00000000       0.00000000       0.00000000 </v>
   <v>      -0.00000000      -0.00000000       0.00000000 </v>
   <v>      -0.00000000       0.00000000      -0.00000000 </v>
   <v>      -0.00000000       0.00000000       0.00000000 </v>
   <v>      -0.00000000       0.00000000      -0.00000000 </v>
   <v>      -0.00000000       0.00000000      -0.00000000 </v>
   <v>      -0.00000000       0.00000000       0.00000000 </v>
   <v>      -0.00000000       0.00000000      -0.00000000 </v>
   <v>      -0.00000000       0.00000000      -0.00000000 </v>
   <v>      -0.00000000       0.00000000      -0.00000000 </v>
   <v>      -0.00000000      -0.00000000      -0.00000000 </v>
   <v>      -0.00000000      -0.00000000      -0.00000000 </v>
   <v>       0.00000000       0.00000000       0.00000000 </v>
   <v>      -0.00000000       0.00000000       0.00000000 </v>
   <v>      -0.00000000       0.00000000       0.00000000 </v>
   <v>      -0.00000000      -0.00000000       0.00000000 </v>
   <v>      -0.00000000      -0.00000000      -0.00000000 </v>
   <v>      -0.00000000      -0.00000000      -0.00000000 </v>
   <v>      -0.00000000      -0.00000000      -0.00000000 </v>
   <v>      -0.00000000      -0.00000000      -0.00000000 </v>
   <v>      -0.00000000      -0.00000000       0.00000000 </v>
   <v>      -0.00000000       0.00000000       0.00000000 </v>
   <v>      -0.00000000       0.00000000       0.00000000 </v>
   <v>      -0.00000000       0.00000000       0.00000000 </v>
  </varray>
  <varray name="stress" >
   <v>      13.30809337       0.00000000       0.00000000 </v>
   <v>       0.00000000      13.30809337       0.00000000 </v>
   <v>      -0.00000000       0.00000000      13.30809337 </v>
  </varray>
  <energy>
   <i name="e_fr_energy">   -734.13600080 </i>
   <i name="e_wo_entrp">   -734.13598195 </i>
   <i name="e_0_energy">     -0.00003772 </i>
  </energy>
  <time name="totalsc">  480.16  480.36</time>
 </calculation>
 <calculation>
  <scstep>
   <time name="dav">   47.09   47.09</time>
   <time name="total">   47.85   47.85</time>
   <energy>
    <i name="alphaZ">   9838.99408677 </i>
    <i name="ewald">-122250.14012323 </i>
    <i name="hartreedc"> -48856.60113553 </i>
    <i name="XCdc">   6114.55336597 </i>
    <i name="pawpsdc"> 134944.16171746 </i>
    <i name="pawaedc">-150777.54328592 </i>
    <i name="eentropy">     -0.00004166 </i>
    <i name="bandstr">  -3320.51859130 </i>
    <i name="atom"> 173566.79152315 </i>
    <i name="e_fr_energy">   -740.30248428 </i>
    <i name="e_wo_entrp">   -740.30244262 </i>
    <i name="e_0_energy">   -740.30246345 </i>
   </energy>
  </scstep>
  <scstep>
   <time name="diag">    9.32    9.32</time>
   <time name="diis">    8.00    8.00</time>
   <time name="orth">    2.73    2.73</time>
   <time name="total">   20.81   20.81</time>
   <energy>
    <i name="e_fr_energy">   -736.64813998 </i>
    <i name="e_wo_entrp">   -736.64807660 </i>
    <i name="e_0_energy">   -736.64810829 </i>
   </energy>
  </scstep>
  <scstep>
   <time name="diag">    9.35    9.35</time>
   <time name="diis">    8.00    8.00</time>
   <time name="orth">    2.74    2.74</time>
   <time name="total">   20.85   20.85</time>
   <energy>
    <i name="e_fr_energy">   -734.30263191 </i>
    <i name="e_wo_entrp">   -734.30253750 </i>
    <i name="e_0_energy">   -734.30258471 </i>
   </energy>
  </scstep>
  <scstep>
   <time name="diag">    9.32    9.32</time>
   <time name="diis">    8.13    8.13</time>
   <time name="orth">    2.73    2.73</time>
   <time name="total">   20.94   20.94</time>
   <energy>
    <i name="e_fr_energy">   -734.23139737 </i>
    <i name="e_wo_entrp">   -734.23130467 </i>
    <i name="e_0_energy">   -734.23135102 </i>
   </energy>
  </scstep>
  <scstep>
   <time name="diag">    9.30    9.30</time>
   <time name="diis">    8.01    8.00</time>
   <time name="orth">    2.73    2.73</time>
   <time name="total">   20.80   20.80</time>
   <energy>
    <i name="e_fr_energy">   -734.19097308 </i>
    <i name="e_wo_entrp">   -734.19088573 </i>
    <i name="e_0_energy">   -734.19092941 </i>
   </energy>
  </scstep>
  <scstep>
   <time name="diag">    9.28    9.27</time>
   <time name="diis">    7.85    7.85</time>
   <time name="orth">    2.73    2.73</time>
   <time name="total">   20.62   20.62</time>
   <energy>
    <i name="e_fr_energy">   -734.18896265 </i>
    <i name="e_wo_entrp">   -734.18887450 </i>
    <i name="e_0_energy">   -734.18891857 </i>
   </energy>
  </scstep>
  <scstep>
   <time name="diag">    9.28    9.28</time>
   <time name="diis">    7.97    7.97</time>
   <time name="orth">    2.74    2.74</time>
   <time name="total">   20.74   20.74</time>
   <energy>
    <i name="e_fr_energy">   -734.18848990 </i>
    <i name="e_wo_entrp">   -734.18840134 </i>
    <i name="e_0_energy">   -734.18844562 </i>
   </energy>
  </scstep>
  <scstep>
   <time name="diag">    9.27    9.27</time>
   <time name="diis">    7.77    7.77</time>
   <time name="orth">    2.73    2.73</time>
   <time name="total">   20.53   20.53</time>
   <energy>
    <i name="e_fr_energy">   -734.18846175 </i>
    <i name="e_wo_entrp">   -734.18837313 </i>
    <i name="e_0_energy">   -734.18841744 </i>
   </energy>
  </scstep>
  <scstep>
   <time name="diag">    9.26    9.26</time>
   <time name="diis">    7.64    7.64</time>
   <time name="orth">    2.73    2.73</time>
   <time name="total">   20.39   20.39</time>
   <energy>
    <i name="e_fr_energy">   -734.18845231 </i>
    <i name="e_wo_entrp">   -734.18836363 </i>
    <i name="e_0_energy">   -734.18840797 </i>
   </energy>
  </scstep>
  <scstep>
   <time name="diag">    9.21    9.21</time>
   <time name="diis">    7.96    7.96</time>
   <time name="orth">    2.73    2.73</time>
   <time name="total">   20.67   20.68</time>
   <energy>
    <i name="e_fr_energy">   -734.18844878 </i>
    <i name="e_wo_entrp">   -734.18836017 </i>
    <i name="e_0_energy">   -734.18840448 </i>
   </energy>
  </scstep>
  <scstep>
   <time name="diag">    9.22    9.22</time>
   <time name="diis">    6.20    6.20</time>
   <time name="orth">    2.73    2.73</time>
   <time name="total">   18.92   18.92</time>
   <energy>
    <i name="e_fr_energy">   -734.18844080 </i>
    <i name="e_wo_entrp">   -734.18835216 </i>
    <i name="e_0_energy">   -734.18839648 </i>
   </energy>
  </scstep>
  <scstep>
   <time name="diag">    9.18    9.18</time>
   <time name="diis">    4.90    4.90</time>
   <time name="orth">    2.75    2.75</time>
   <time name="total">   17.59   17.60</time>
   <energy>
    <i name="e_fr_energy">   -734.18844229 </i>
    <i name="e_wo_entrp">   -734.18835365 </i>
    <i name="e_0_energy">   -734.18839797 </i>
   </energy>
  </scstep>
  <scstep>
   <time name="diag">    9.16    9.16</time>
   <time name="diis">    4.46    4.46</time>
   <time name="orth">    2.78    2.79</time>
   <time name="total">   16.48   16.48</time>
   <energy>
    <i name="alphaZ">   9838.99408677 </i>
    <i name="ewald">-122250.14012323 </i>
    <i name="hartreedc"> -49484.74010477 </i>
    <i name="XCdc">   6147.16146500 </i>
    <i name="pawpsdc"> 134646.36408858 </i>
    <i name="pawaedc">-150470.60105377 </i>
    <i name="eentropy">     -0.00008864 </i>
    <i name="bandstr">  -2728.01823618 </i>
    <i name="atom"> 173566.79152315 </i>
    <i name="e_fr_energy">   -734.18844309 </i>
    <i name="e_wo_entrp">   -734.18835445 </i>
    <i name="e_0_energy">   -734.18839877 </i>
   </energy>
  </scstep>
  <structure>
   <crystal>
    <varray name="basis" >
     <v>      12.84598564       0.00000000       0.00000000 </v>
     <v>       0.00000000      12.84598564       0.00000000 </v>
     <v>      -0.00000000       0.00000000      12.84598564 </v>
    </varray>
    <i name="volume">   2119.83616491 </i>
    <varray name="rec_basis" >
     <v>       0.07784533      -0.00000000       0.00000000 </v>
     <v>       0.00000000       0.07784533      -0.00000000 </v>
     <v>      -0.00000000      -0.00000000       0.07784533 </v>
    </varray>
   </crystal>
   <varray name="positions" >
    <v>       0.08333334       0.08333334       0.08333334 </v>
    <v>       0.91666669       0.91666669       0.08333334 </v>
    <v>       0.91666669       0.08333334       0.91666669 </v>
    <v>       0.08333334       0.91666669       0.91666669 </v>
    <v>       0.25000000       0.25000000       0.08333333 </v>
    <v>       0.25000000       0.08333333       0.25000000 </v>
    <v>       0.08333333       0.25000000       0.25000000 </v>
    <v>       0.08333334       0.08333334       0.41666666 </v>
    <v>       0.91666669       0.91666669       0.41666666 </v>
    <v>       0.91666669       0.08333334       0.58333331 </v>
    <v>       0.08333334       0.91666669       0.58333331 </v>
    <v>       0.41666666       0.08333334       0.08333334 </v>
    <v>       0.41666666       0.91666669       0.91666669 </v>
    <v>       0.58333331       0.91666669       0.08333334 </v>
    <v>       0.58333331       0.08333334       0.91666669 </v>
    <v>       0.08333334       0.41666666       0.08333334 </v>
    <v>       0.91666669       0.41666666       0.91666669 </v>
    <v>       0.08333334       0.58333331       0.91666669 </v>
    <v>       0.91666669       0.58333331       0.08333334 </v>
    <v>       0.25000000       0.25000000       0.75000000 </v>
    <v>       0.08333333       0.08333333       0.75000000 </v>
    <v>       0.25000000       0.08333333       0.58333331 </v>
    <v>       0.08333333       0.25000000       0.58333331 </v>
    <v>       0.25000000       0.58333331       0.08333333 </v>
    <v>       0.08333333       0.58333331       0.25000000 </v>
    <v>       0.08333333       0.75000000       0.08333333 </v>
    <v>       0.25000000       0.75000000       0.25000000 </v>
    <v>       0.58333331       0.25000000       0.08333333 </v>
    <v>       0.58333331       0.08333333       0.25000000 </v>
    <v>       0.75000000       0.25000000       0.25000000 </v>
    <v>       0.75000000       0.08333333       0.08333333 </v>
    <v>       0.91666669       0.91666669       0.75000000 </v>
    <v>       0.91666669       0.08333334       0.25000000 </v>
    <v>       0.08333334       0.91666669       0.25000000 </v>
    <v>       0.75000000       0.91666669       0.91666669 </v>
    <v>       0.25000000       0.91666669       0.08333334 </v>
    <v>       0.25000000       0.08333334       0.91666669 </v>
    <v>       0.91666669       0.75000000       0.91666669 </v>
    <v>       0.08333334       0.25000000       0.91666669 </v>
    <v>       0.91666669       0.25000000       0.08333334 </v>
    <v>       0.25000000       0.25000000       0.41666666 </v>
    <v>       0.25000000       0.41666666       0.25000000 </v>
    <v>       0.41666666       0.25000000       0.25000000 </v>
    <v>       0.08333334       0.41666666       0.41666666 </v>
    <v>       0.91666669       0.58333331       0.41666666 </v>
    <v>       0.91666669       0.41666666       0.58333331 </v>
    <v>       0.08333334       0.58333331       0.58333331 </v>
    <v>       0.41666666       0.08333334       0.41666666 </v>
    <v>       0.41666666       0.91666669       0.58333331 </v>
    <v>       0.58333331       0.91666669       0.41666666 </v>
    <v>       0.58333331       0.08333334       0.58333331 </v>
    <v>       0.41666666       0.41666666       0.08333334 </v>
    <v>       0.58333331       0.41666666       0.91666669 </v>
    <v>       0.41666666       0.58333331       0.91666669 </v>
    <v>       0.58333331       0.58333331       0.08333334 </v>
    <v>       0.58333331       0.25000000       0.75000000 </v>
    <v>       0.75000000       0.08333333       0.75000000 </v>
    <v>       0.75000000       0.25000000       0.58333331 </v>
    <v>       0.25000000       0.58333331       0.75000000 </v>
    <v>       0.08333333       0.75000000       0.75000000 </v>
    <v>       0.25000000       0.75000000       0.58333331 </v>
    <v>       0.58333331       0.75000000       0.25000000 </v>
    <v>       0.75000000       0.58333331       0.25000000 </v>
    <v>       0.75000000       0.75000000       0.08333333 </v>
    <v>       0.08333334       0.41666666       0.75000000 </v>
    <v>       0.91666669       0.58333331       0.75000000 </v>
    <v>       0.91666669       0.41666666       0.25000000 </v>
    <v>       0.75000000       0.08333334       0.41666666 </v>
    <v>       0.75000000       0.91666669       0.58333331 </v>
    <v>       0.25000000       0.91666669       0.41666666 </v>
    <v>       0.41666666       0.75000000       0.08333334 </v>
    <v>       0.58333331       0.75000000       0.91666669 </v>
    <v>       0.41666666       0.25000000       0.91666669 </v>
    <v>       0.58333331       0.25000000       0.41666666 </v>
    <v>       0.75000000       0.25000000       0.91666669 </v>
    <v>       0.25000000       0.91666669       0.75000000 </v>
    <v>       0.25000000       0.41666666       0.58333331 </v>
    <v>       0.91666669       0.75000000       0.25000000 </v>
    <v>       0.41666666       0.58333331       0.25000000 </v>
    <v>       0.08333333       0.75000000       0.41666666 </v>
    <v>       0.25000000       0.58333331       0.41666666 </v>
    <v>       0.25000000       0.75000000       0.91666669 </v>
    <v>       0.41666666       0.08333333       0.75000000 </v>
    <v>       0.41666666       0.25000000       0.58333331 </v>
    <v>       0.91666669       0.25000000       0.75000000 </v>
    <v>       0.75000000       0.41666666       0.08333333 </v>
    <v>       0.58333331       0.41666666       0.25000000 </v>
    <v>       0.75000000       0.91666669       0.25000000 </v>
    <v>       0.58333331       0.91666669       0.75000000 </v>
    <v>       0.41666666       0.91666669       0.25000000 </v>
    <v>       0.91666669       0.25000000       0.41666666 </v>
    <v>       0.91666669       0.75000000       0.58333331 </v>
    <v>       0.25000000       0.41666666       0.91666669 </v>
    <v>       0.75000000       0.58333331       0.91666669 </v>
    <v>       0.41666666       0.41666666       0.41666666 </v>
    <v>       0.58333331       0.58333331       0.41666666 </v>
    <v>       0.58333331       0.41666666       0.58333331 </v>
    <v>       0.41666666       0.58333331       0.58333331 </v>
    <v>       0.58333331       0.58333331       0.75000000 </v>
    <v>       0.75000000       0.75000000       0.75000000 </v>
    <v>       0.58333331       0.75000000       0.58333331 </v>
    <v>       0.75000000       0.58333331       0.58333331 </v>
    <v>       0.41666666       0.41666666       0.75000000 </v>
    <v>       0.75000000       0.41666666       0.41666666 </v>
    <v>       0.41666666       0.75000000       0.41666666 </v>
    <v>       0.75000000       0.75000000       0.41666666 </v>
    <v>       0.75000000       0.41666666       0.75000000 </v>
    <v>       0.41666666       0.75000000       0.75000000 </v>
    <v>      -0.00000000      -0.00000000       0.00000000 </v>
    <v>       0.16666667       0.16666667       0.16666667 </v>
    <v>      -0.00000000      -0.00000000       0.33333334 </v>
    <v>      -0.00000000      -0.00000000       0.66666669 </v>
    <v>       0.33333334      -0.00000000      -0.00000000 </v>
    <v>       0.66666669       0.00000000      -0.00000000 </v>
    <v>      -0.00000000       0.33333334      -0.00000000 </v>
    <v>      -0.00000000       0.66666669       0.00000000 </v>
    <v>       0.16666667       0.16666667       0.83333331 </v>
    <v>       0.16666667       0.16666667       0.50000000 </v>
    <v>       0.16666667       0.50000000       0.16666667 </v>
    <v>       0.16666667       0.83333331       0.16666667 </v>
    <v>       0.50000000       0.16666667       0.16666667 </v>
    <v>       0.83333331       0.16666667       0.16666667 </v>
    <v>      -0.00000000       0.33333334       0.33333334 </v>
    <v>      -0.00000000       0.66666669       0.33333334 </v>
    <v>      -0.00000000       0.33333334       0.66666669 </v>
    <v>      -0.00000000       0.66666669       0.66666669 </v>
    <v>       0.33333334       0.00000000       0.33333334 </v>
    <v>       0.33333334      -0.00000000       0.66666669 </v>
    <v>       0.66666669       0.00000000       0.33333334 </v>
    <v>       0.66666669       0.00000000       0.66666669 </v>
    <v>       0.33333334       0.33333334      -0.00000000 </v>
    <v>       0.66666669       0.33333334      -0.00000000 </v>
    <v>       0.33333334       0.66666669      -0.00000000 </v>
    <v>       0.66666669       0.66666669      -0.00000000 </v>
    <v>       0.50000000       0.16666667       0.83333331 </v>
    <v>       0.83333331       0.16666667       0.83333331 </v>
    <v>       0.50000000       0.16666667       0.50000000 </v>
    <v>       0.83333331       0.16666667       0.50000000 </v>
    <v>       0.16666667       0.50000000       0.83333331 </v>
    <v>       0.16666667       0.50000000       0.50000000 </v>
    <v>       0.16666667       0.83333331       0.83333331 </v>
    <v>       0.16666667       0.83333331       0.50000000 </v>
    <v>       0.50000000       0.50000000       0.16666667 </v>
    <v>       0.50000000       0.83333331       0.16666667 </v>
    <v>       0.83333331       0.50000000       0.16666667 </v>
    <v>       0.83333331       0.83333331       0.16666667 </v>
    <v>       0.33333334       0.33333334       0.33333334 </v>
    <v>       0.66666669       0.66666669       0.33333334 </v>
    <v>       0.66666669       0.33333334       0.66666669 </v>
    <v>       0.33333334       0.66666669       0.66666669 </v>
    <v>       0.50000000       0.50000000       0.83333331 </v>
    <v>       0.83333331       0.83333331       0.83333331 </v>
    <v>       0.50000000       0.83333331       0.50000000 </v>
    <v>       0.83333331       0.50000000       0.50000000 </v>
    <v>       0.33333334       0.33333334       0.66666669 </v>
    <v>       0.66666669       0.66666669       0.66666669 </v>
    <v>       0.66666669       0.33333334       0.33333334 </v>
    <v>       0.33333334       0.66666669       0.33333334 </v>
    <v>       0.50000000       0.50000000       0.50000000 </v>
    <v>       0.83333331       0.83333331       0.50000000 </v>
    <v>       0.50000000       0.83333331       0.83333331 </v>
    <v>       0.83333331       0.50000000       0.83333331 </v>
   </varray>
  </structure>
  <varray name="forces" >
   <v>       0.00000000      -0.00000000       0.00000000 </v>
   <v>       0.00000000       0.00000000       0.00000000 </v>
   <v>       0.00000000       0.00000000       0.00000000 </v>
   <v>      -0.00000000      -0.00000000       0.00000000 </v>
   <v>       0.00000000       0.00000000       0.00000000 </v>
   <v>       0.00000000       0.00000000       0.00000000 </v>
   <v>       0.00000000      -0.00000000       0.00000000 </v>
   <v>       0.00000000      -0.00000000       0.00000000 </v>
   <v>       0.00000000       0.00000000       0.00000000 </v>
   <v>       0.00000000      -0.00000000      -0.00000000 </v>
   <v>      -0.00000000      -0.00000000      -0.00000000 </v>
   <v>       0.00000000      -0.00000000      -0.00000000 </v>
   <v>      -0.00000000      -0.00000000      -0.00000000 </v>
   <v>      -0.00000000       0.00000000       0.00000000 </v>
   <v>       0.00000000       0.00000000       0.00000000 </v>
   <v>       0.00000000      -0.00000000      -0.00000000 </v>
   <v>       0.00000000      -0.00000000      -0.00000000 </v>
   <v>      -0.00000000      -0.00000000       0.00000000 </v>
   <v>       0.00000000       0.00000000       0.00000000 </v>
[...]
       <r>    1.0295    1.0000 </r>
       <r>    1.0295    1.0000 </r>
       <r>    1.0295    1.0000 </r>
       <r>    1.0295    1.0000 </r>
       <r>    1.0295    1.0000 </r>
       <r>    1.0296    1.0000 </r>
       <r>    1.0296    1.0000 </r>
       <r>    1.0296    1.0000 </r>
       <r>    1.2329    1.0000 </r>
       <r>    1.2329    1.0000 </r>
       <r>    1.2330    1.0000 </r>
       <r>    1.2330    1.0000 </r>
       <r>    1.2330    1.0000 </r>
       <r>    1.2330    1.0000 </r>
       <r>    1.2330    1.0000 </r>
       <r>    1.2330    1.0000 </r>
       <r>    1.2330    1.0000 </r>
       <r>    1.2330    1.0000 </r>
       <r>    1.2330    1.0000 </r>
       <r>    1.2330    1.0000 </r>
       <r>    1.2998    1.0000 </r>
       <r>    1.2998    1.0000 </r>
       <r>    1.2998    1.0000 </r>
       <r>    1.2998    1.0000 </r>
       <r>    1.2998    1.0000 </r>
       <r>    1.2998    1.0000 </r>
       <r>    1.2998    1.0000 </r>
       <r>    1.2998    1.0000 </r>
       <r>    1.2998    1.0000 </r>
       <r>    1.2998    1.0000 </r>
       <r>    1.2998    1.0000 </r>
       <r>    1.2998    1.0000 </r>
       <r>    1.3541    1.0000 </r>
       <r>    1.5866    1.0000 </r>
       <r>    1.5866    1.0000 </r>
       <r>    1.5866    1.0000 </r>
       <r>    1.5866    1.0000 </r>
       <r>    1.5866    1.0000 </r>
       <r>    1.5866    1.0000 </r>
       <r>    1.6090    1.0000 </r>
       <r>    1.6090    1.0000 </r>
       <r>    1.6090    1.0000 </r>
       <r>    1.6090    1.0000 </r>
       <r>    1.6090    1.0000 </r>
       <r>    1.6090    1.0000 </r>
       <r>    1.6090    1.0000 </r>
       <r>    1.6090    1.0000 </r>
       <r>    1.6090    1.0000 </r>
       <r>    1.6090    1.0000 </r>
       <r>    1.6091    1.0000 </r>
       <r>    1.6091    1.0000 </r>
       <r>    1.6091    1.0000 </r>
       <r>    1.6091    1.0000 </r>
       <r>    1.6091    1.0000 </r>
       <r>    1.6091    1.0000 </r>
       <r>    1.7597    1.0000 </r>
       <r>    1.7597    1.0000 </r>
       <r>    1.7597    1.0000 </r>
       <r>    1.7598    1.0000 </r>
       <r>    1.7598    1.0000 </r>
       <r>    1.7598    1.0000 </r>
       <r>    1.8031    1.0000 </r>
       <r>    1.8031    1.0000 </r>
       <r>    1.8031    1.0000 </r>
       <r>    1.8210    1.0000 </r>
       <r>    1.8210    1.0000 </r>
       <r>    1.8210    1.0000 </r>
       <r>    1.8210    1.0000 </r>
       <r>    1.8210    1.0000 </r>
       <r>    1.8210    1.0000 </r>
       <r>    1.8210    1.0000 </r>
       <r>    1.8210    1.0000 </r>
       <r>    1.8210    1.0000 </r>
       <r>    1.8210    1.0000 </r>
       <r>    1.8210    1.0000 </r>
       <r>    1.8210    1.0000 </r>
       <r>    1.8489    1.0000 </r>
       <r>    1.8490    1.0000 </r>
       <r>    1.8490    1.0000 </r>
       <r>    1.8490    1.0000 </r>
       <r>    1.8490    1.0000 </r>
       <r>    1.8490    1.0000 </r>
       <r>    1.8490    1.0000 </r>
       <r>    1.8490    1.0000 </r>
       <r>    1.8490    1.0000 </r>
       <r>    1.8490    1.0000 </r>
       <r>    1.8490    1.0000 </r>
       <r>    1.8490    1.0000 </r>
       <r>    2.1445    1.0000 </r>
       <r>    2.1445    1.0000 </r>
       <r>    2.1445    1.0000 </r>
       <r>    2.1445    1.0000 </r>
       <r>    2.1446    1.0000 </r>
       <r>    2.1446    1.0000 </r>
       <r>    2.1446    1.0000 </r>
       <r>    2.1446    1.0000 </r>
       <r>    3.5399    0.0000 </r>
       <r>    3.5399    0.0000 </r>
       <r>    3.5399    0.0000 </r>
       <r>    3.5399    0.0000 </r>
       <r>    3.5399    0.0000 </r>
       <r>    3.5399    0.0000 </r>
       <r>    3.5399    0.0000 </r>
       <r>    3.5399    0.0000 </r>
       <r>    4.0043    0.0000 </r>
       <r>    4.0044    0.0000 </r>
       <r>    4.0044    0.0000 </r>
       <r>    4.0044    0.0000 </r>
       <r>    4.0044    0.0000 </r>
       <r>    4.0044    0.0000 </r>
       <r>    4.6453    0.0000 </r>
       <r>    4.6453    0.0000 </r>
       <r>    4.6453    0.0000 </r>
       <r>    4.6453    0.0000 </r>
       <r>    4.6453    0.0000 </r>
       <r>    4.6453    0.0000 </r>
       <r>    4.6453    0.0000 </r>
       <r>    4.6453    0.0000 </r>
       <r>    4.6453    0.0000 </r>
       <r>    4.6453    0.0000 </r>
       <r>    4.6453    0.0000 </r>
       <r>    4.6453    0.0000 </r>
       <r>    4.8664    0.0000 </r>
       <r>    4.8664    0.0000 </r>
       <r>    4.8664    0.0000 </r>
       <r>    4.8843    0.0000 </r>
       <r>    4.8843    0.0000 </r>
       <r>    4.8843    0.0000 </r>
       <r>    4.8843    0.0000 </r>
       <r>    4.8843    0.0000 </r>
       <r>    4.8843    0.0000 </r>
       <r>    4.8843    0.0000 </r>
       <r>    4.8843    0.0000 </r>
       <r>    4.8843    0.0000 </r>
       <r>    4.8843    0.0000 </r>
       <r>    4.8843    0.0000 </r>
       <r>    4.8843    0.0000 </r>
       <r>    5.0442    0.0000 </r>
       <r>    5.0442    0.0000 </r>
       <r>    5.0442    0.0000 </r>
       <r>    5.0442    0.0000 </r>
       <r>    5.0442    0.0000 </r>
       <r>    5.0442    0.0000 </r>
       <r>    5.0442    0.0000 </r>
       <r>    5.0442    0.0000 </r>
       <r>    5.0442    0.0000 </r>
       <r>    5.0442    0.0000 </r>
       <r>    5.0442    0.0000 </r>
       <r>    5.0442    0.0000 </r>
       <r>    5.0442    0.0000 </r>
       <r>    5.0442    0.0000 </r>
       <r>    5.0442    0.0000 </r>
       <r>    5.0442    0.0000 </r>
       <r>    5.2378    0.0000 </r>
       <r>    5.2378    0.0000 </r>
       <r>    5.2378    0.0000 </r>
       <r>    5.2379    0.0000 </r>
       <r>    5.2379    0.0000 </r>
       <r>    5.2379    0.0000 </r>
       <r>    5.9329    0.0000 </r>
       <r>    5.9329    0.0000 </r>
       <r>    5.9329    0.0000 </r>
       <r>    5.9329    0.0000 </r>
       <r>    5.9329    0.0000 </r>
       <r>    5.9329    0.0000 </r>
       <r>    5.9329    0.0000 </r>
       <r>    5.9329    0.0000 </r>
       <r>    5.9329    0.0000 </r>
       <r>    5.9329    0.0000 </r>
       <r>    5.9329    0.0000 </r>
       <r>    5.9329    0.0000 </r>
       <r>    5.9896    0.0000 </r>
       <r>    5.9896    0.0000 </r>
       <r>    5.9896    0.0000 </r>
       <r>    5.9896    0.0000 </r>
       <r>    5.9896    0.0000 </r>
       <r>    5.9896    0.0000 </r>
       <r>    5.9896    0.0000 </r>
       <r>    5.9896    0.0000 </r>
       <r>    5.9896    0.0000 </r>
       <r>    5.9896    0.0000 </r>
       <r>    5.9896    0.0000 </r>
       <r>    5.9896    0.0000 </r>
       <r>    6.7135    0.0000 </r>
       <r>    6.7135    0.0000 </r>
       <r>    6.7135    0.0000 </r>
       <r>    6.7135    0.0000 </r>
       <r>    6.7135    0.0000 </r>
       <r>    6.7135    0.0000 </r>
       <r>    6.7135    0.0000 </r>
       <r>    6.7135    0.0000 </r>
       <r>    6.7135    0.0000 </r>
       <r>    6.7135    0.0000 </r>
       <r>    6.7136    0.0000 </r>
       <r>    6.7136    0.0000 </r>
       <r>    7.2268    0.0000 </r>
       <r>    7.2268    0.0000 </r>
       <r>    7.2268    0.0000 </r>
       <r>    8.0234    0.0000 </r>
       <r>    8.0234    0.0000 </r>
       <r>    8.0234    0.0000 </r>
       <r>    8.0234    0.0000 </r>
       <r>    8.0234    0.0000 </r>
       <r>    8.0234    0.0000 </r>
       <r>    8.0234    0.0000 </r>
       <r>    8.0234    0.0000 </r>
       <r>    8.0234    0.0000 </r>
       <r>    8.0234    0.0000 </r>
       <r>    8.0234    0.0000 </r>
       <r>    8.0234    0.0000 </r>
       <r>    8.1353    0.0000 </r>
       <r>    8.1353    0.0000 </r>
       <r>    8.1353    0.0000 </r>
       <r>    8.1353    0.0000 </r>
       <r>    8.1353    0.0000 </r>
       <r>    8.1353    0.0000 </r>
       <r>    8.1354    0.0000 </r>
       <r>    8.1354    0.0000 </r>
       <r>    8.1479    0.0000 </r>
       <r>    8.1479    0.0000 </r>
       <r>    8.1479    0.0000 </r>
       <r>    8.1480    0.0000 </r>
       <r>    8.1480    0.0000 </r>
       <r>    8.1480    0.0000 </r>
       <r>    8.1480    0.0000 </r>
       <r>    8.1480    0.0000 </r>
       <r>    8.1480    0.0000 </r>
       <r>    8.1480    0.0000 </r>
       <r>    8.1480    0.0000 </r>
       <r>    8.1480    0.0000 </r>
       <r>    8.5154    0.0000 </r>
       <r>    8.5154    0.0000 </r>
       <r>    8.5154    0.0000 </r>
       <r>    8.5154    0.0000 </r>
       <r>    8.5154    0.0000 </r>
       <r>    8.5154    0.0000 </r>
       <r>    8.5154    0.0000 </r>
       <r>    8.5154    0.0000 </r>
       <r>    8.5154    0.0000 </r>
       <r>    8.5154    0.0000 </r>
       <r>    8.5154    0.0000 </r>
       <r>    8.5155    0.0000 </r>
       <r>    9.0418    0.0000 </r>
       <r>    9.0418    0.0000 </r>
       <r>    9.0418    0.0000 </r>
       <r>    9.0418    0.0000 </r>
       <r>    9.0418    0.0000 </r>
       <r>    9.0418    0.0000 </r>
      </set>
     </set>
    </set>
   </array>
  </eigenvalues>
  <separator name="orbital magnetization" >
   <v name="MAGDIPOLOUT">      0.00000000      0.00000000      0.00000000</v>
  </separator>
 </calculation>
 <structure name="finalpos" >
  <crystal>
   <varray name="basis" >
    <v>      12.82036850      -0.00000000      -0.00000000 </v>
    <v>       0.00000000      12.82036850      -0.00000000 </v>
    <v>      -0.00000000      -0.00000000      12.82036850 </v>
   </varray>
   <i name="volume">   2107.17946716 </i>
   <varray name="rec_basis" >
    <v>       0.07800088      -0.00000000       0.00000000 </v>
    <v>       0.00000000       0.07800088       0.00000000 </v>
    <v>       0.00000000       0.00000000       0.07800088 </v>
   </varray>
  </crystal>
  <varray name="positions" >
   <v>       0.08333334       0.08333334       0.08333334 </v>
   <v>       0.91666669       0.91666669       0.08333334 </v>
   <v>       0.91666669       0.08333334       0.91666669 </v>
   <v>       0.08333334       0.91666669       0.91666669 </v>
   <v>       0.25000000       0.25000000       0.08333333 </v>
   <v>       0.25000000       0.08333333       0.25000000 </v>
   <v>       0.08333333       0.25000000       0.25000000 </v>
   <v>       0.08333334       0.08333334       0.41666666 </v>
   <v>       0.91666669       0.91666669       0.41666666 </v>
   <v>       0.91666669       0.08333334       0.58333331 </v>
   <v>       0.08333334       0.91666669       0.58333331 </v>
   <v>       0.41666666       0.08333334       0.08333334 </v>
   <v>       0.41666666       0.91666669       0.91666669 </v>
   <v>       0.58333331       0.91666669       0.08333334 </v>
   <v>       0.58333331       0.08333334       0.91666669 </v>
   <v>       0.08333334       0.41666666       0.08333334 </v>
   <v>       0.91666669       0.41666666       0.91666669 </v>
   <v>       0.08333334       0.58333331       0.91666669 </v>
   <v>       0.91666669       0.58333331       0.08333334 </v>
   <v>       0.25000000       0.25000000       0.75000000 </v>
   <v>       0.08333333       0.08333333       0.75000000 </v>
   <v>       0.25000000       0.08333333       0.58333331 </v>
   <v>       0.08333333       0.25000000       0.58333331 </v>
   <v>       0.25000000       0.58333331       0.08333333 </v>
   <v>       0.08333333       0.58333331       0.25000000 </v>
   <v>       0.08333333       0.75000000       0.08333333 </v>
   <v>       0.25000000       0.75000000       0.25000000 </v>
   <v>       0.58333331       0.25000000       0.08333333 </v>
   <v>       0.58333331       0.08333333       0.25000000 </v>
   <v>       0.75000000       0.25000000       0.25000000 </v>
   <v>       0.75000000       0.08333333       0.08333333 </v>
   <v>       0.91666669       0.91666669       0.75000000 </v>
   <v>       0.91666669       0.08333334       0.25000000 </v>
   <v>       0.08333334       0.91666669       0.25000000 </v>
   <v>       0.75000000       0.91666669       0.91666669 </v>
   <v>       0.25000000       0.91666669       0.08333334 </v>
   <v>       0.25000000       0.08333334       0.91666669 </v>
   <v>       0.91666669       0.75000000       0.91666669 </v>
   <v>       0.08333334       0.25000000       0.91666669 </v>
   <v>       0.91666669       0.25000000       0.08333334 </v>
   <v>       0.25000000       0.25000000       0.41666666 </v>
   <v>       0.25000000       0.41666666       0.25000000 </v>
   <v>       0.41666666       0.25000000       0.25000000 </v>
   <v>       0.08333334       0.41666666       0.41666666 </v>
   <v>       0.91666669       0.58333331       0.41666666 </v>
   <v>       0.91666669       0.41666666       0.58333331 </v>
   <v>       0.08333334       0.58333331       0.58333331 </v>
   <v>       0.41666666       0.08333334       0.41666666 </v>
   <v>       0.41666666       0.91666669       0.58333331 </v>
   <v>       0.58333331       0.91666669       0.41666666 </v>
   <v>       0.58333331       0.08333334       0.58333331 </v>
   <v>       0.41666666       0.41666666       0.08333334 </v>
   <v>       0.58333331       0.41666666       0.91666669 </v>
   <v>       0.41666666       0.58333331       0.91666669 </v>
   <v>       0.58333331       0.58333331       0.08333334 </v>
   <v>       0.58333331       0.25000000       0.75000000 </v>
   <v>       0.75000000       0.08333333       0.75000000 </v>
   <v>       0.75000000       0.25000000       0.58333331 </v>
   <v>       0.25000000       0.58333331       0.75000000 </v>
   <v>       0.08333333       0.75000000       0.75000000 </v>
   <v>       0.25000000       0.75000000       0.58333331 </v>
   <v>       0.58333331       0.75000000       0.25000000 </v>
   <v>       0.75000000       0.58333331       0.25000000 </v>
   <v>       0.75000000       0.75000000       0.08333333 </v>
   <v>       0.08333334       0.41666666       0.75000000 </v>
   <v>       0.91666669       0.58333331       0.75000000 </v>
   <v>       0.91666669       0.41666666       0.25000000 </v>
   <v>       0.75000000       0.08333334       0.41666666 </v>
   <v>       0.75000000       0.91666669       0.58333331 </v>
   <v>       0.25000000       0.91666669       0.41666666 </v>
   <v>       0.41666666       0.75000000       0.08333334 </v>
   <v>       0.58333331       0.75000000       0.91666669 </v>
   <v>       0.41666666       0.25000000       0.91666669 </v>
   <v>       0.58333331       0.25000000       0.41666666 </v>
   <v>       0.75000000       0.25000000       0.91666669 </v>
   <v>       0.25000000       0.91666669       0.75000000 </v>
   <v>       0.25000000       0.41666666       0.58333331 </v>
   <v>       0.91666669       0.75000000       0.25000000 </v>
   <v>       0.41666666       0.58333331       0.25000000 </v>
   <v>       0.08333333       0.75000000       0.41666666 </v>
   <v>       0.25000000       0.58333331       0.41666666 </v>
   <v>       0.25000000       0.75000000       0.91666669 </v>
   <v>       0.41666666       0.08333333       0.75000000 </v>
   <v>       0.41666666       0.25000000       0.58333331 </v>
   <v>       0.91666669       0.25000000       0.75000000 </v>
   <v>       0.75000000       0.41666666       0.08333333 </v>
   <v>       0.58333331       0.41666666       0.25000000 </v>
   <v>       0.75000000       0.91666669       0.25000000 </v>
   <v>       0.58333331       0.91666669       0.75000000 </v>
   <v>       0.41666666       0.91666669       0.25000000 </v>
   <v>       0.91666669       0.25000000       0.41666666 </v>
   <v>       0.91666669       0.75000000       0.58333331 </v>
   <v>       0.25000000       0.41666666       0.91666669 </v>
   <v>       0.75000000       0.58333331       0.91666669 </v>
   <v>       0.41666666       0.41666666       0.41666666 </v>
   <v>       0.58333331       0.58333331       0.41666666 </v>
   <v>       0.58333331       0.41666666       0.58333331 </v>
   <v>       0.41666666       0.58333331       0.58333331 </v>
   <v>       0.58333331       0.58333331       0.75000000 </v>
   <v>       0.75000000       0.75000000       0.75000000 </v>
   <v>       0.58333331       0.75000000       0.58333331 </v>
   <v>       0.75000000       0.58333331       0.58333331 </v>
   <v>       0.41666666       0.41666666       0.75000000 </v>
   <v>       0.75000000       0.41666666       0.41666666 </v>
   <v>       0.41666666       0.75000000       0.41666666 </v>
   <v>       0.75000000       0.75000000       0.41666666 </v>
   <v>       0.75000000       0.41666666       0.75000000 </v>
   <v>       0.41666666       0.75000000       0.75000000 </v>
   <v>      -0.00000000      -0.00000000      -0.00000000 </v>
   <v>       0.16666667       0.16666667       0.16666667 </v>
   <v>      -0.00000000      -0.00000000       0.33333334 </v>
   <v>      -0.00000000      -0.00000000       0.66666669 </v>
   <v>       0.33333334      -0.00000000      -0.00000000 </v>
   <v>       0.66666669      -0.00000000      -0.00000000 </v>
   <v>      -0.00000000       0.33333334      -0.00000000 </v>
   <v>      -0.00000000       0.66666669      -0.00000000 </v>
   <v>       0.16666667       0.16666667       0.83333331 </v>
   <v>       0.16666667       0.16666667       0.50000000 </v>
   <v>       0.16666667       0.50000000       0.16666667 </v>
   <v>       0.16666667       0.83333331       0.16666667 </v>
   <v>       0.50000000       0.16666667       0.16666667 </v>
   <v>       0.83333331       0.16666667       0.16666667 </v>
   <v>      -0.00000000       0.33333334       0.33333334 </v>
   <v>      -0.00000000       0.66666669       0.33333334 </v>
   <v>      -0.00000000       0.33333334       0.66666669 </v>
   <v>      -0.00000000       0.66666669       0.66666669 </v>
   <v>       0.33333334      -0.00000000       0.33333334 </v>
   <v>       0.33333334      -0.00000000       0.66666669 </v>
   <v>       0.66666669      -0.00000000       0.33333334 </v>
   <v>       0.66666669      -0.00000000       0.66666669 </v>
   <v>       0.33333334       0.33333334      -0.00000000 </v>
   <v>       0.66666669       0.33333334      -0.00000000 </v>
   <v>       0.33333334       0.66666669      -0.00000000 </v>
   <v>       0.66666669       0.66666669      -0.00000000 </v>
   <v>       0.50000000       0.16666667       0.83333331 </v>
   <v>       0.83333331       0.16666667       0.83333331 </v>
   <v>       0.50000000       0.16666667       0.50000000 </v>
   <v>       0.83333331       0.16666667       0.50000000 </v>
   <v>       0.16666667       0.50000000       0.83333331 </v>
   <v>       0.16666667       0.50000000       0.50000000 </v>
   <v>       0.16666667       0.83333331       0.83333331 </v>
   <v>       0.16666667       0.83333331       0.50000000 </v>
   <v>       0.50000000       0.50000000       0.16666667 </v>
   <v>       0.50000000       0.83333331       0.16666667 </v>
   <v>       0.83333331       0.50000000       0.16666667 </v>
   <v>       0.83333331       0.83333331       0.16666667 </v>
   <v>       0.33333334       0.33333334       0.33333334 </v>
   <v>       0.66666669       0.66666669       0.33333334 </v>
   <v>       0.66666669       0.33333334       0.66666669 </v>
   <v>       0.33333334       0.66666669       0.66666669 </v>
   <v>       0.50000000       0.50000000       0.83333331 </v>
   <v>       0.83333331       0.83333331       0.83333331 </v>
   <v>       0.50000000       0.83333331       0.50000000 </v>
   <v>       0.83333331       0.50000000       0.50000000 </v>
   <v>       0.33333334       0.33333334       0.66666669 </v>
   <v>       0.66666669       0.66666669       0.66666669 </v>
   <v>       0.66666669       0.33333334       0.33333334 </v>
   <v>       0.33333334       0.66666669       0.33333334 </v>
   <v>       0.50000000       0.50000000       0.50000000 </v>
   <v>       0.83333331       0.83333331       0.50000000 </v>
   <v>       0.50000000       0.83333331       0.83333331 </v>
   <v>       0.83333331       0.50000000       0.83333331 </v>
  </varray>
 </structure>
</modeling>
