unknown system                          
           1
    12.845986    0.000000    0.000000
     0.000000   12.845986    0.000000
    -0.000000    0.000000   12.845986
   Cu   O 
 108  54
Direct configuration=     1
   0.08333334  0.08333334  0.08333334
   0.91666669  0.91666669  0.08333334
   0.91666669  0.08333334  0.91666669
   0.08333334  0.91666669  0.91666669
   0.25000000  0.25000000  0.08333333
   0.25000000  0.08333333  0.25000000
   0.08333333  0.25000000  0.25000000
   0.08333334  0.08333334  0.41666666
   0.91666669  0.91666669  0.41666666
   0.91666669  0.08333334  0.58333331
   0.08333334  0.91666669  0.58333331
   0.41666666  0.08333334  0.08333334
   0.41666666  0.91666669  0.91666669
   0.58333331  0.91666669  0.08333334
   0.58333331  0.08333334  0.91666669
   0.08333334  0.41666666  0.08333334
   0.91666669  0.41666666  0.91666669
   0.08333334  0.58333331  0.91666669
   0.91666669  0.58333331  0.08333334
   0.25000000  0.25000000  0.75000000
   0.08333333  0.08333333  0.75000000
   0.25000000  0.08333333  0.58333331
   0.08333333  0.25000000  0.58333331
   0.25000000  0.58333331  0.08333333
   0.08333333  0.58333331  0.25000000
   0.08333333  0.75000000  0.08333333
   0.25000000  0.75000000  0.25000000
   0.58333331  0.25000000  0.08333333
   0.58333331  0.08333333  0.25000000
   0.75000000  0.25000000  0.25000000
   0.75000000  0.08333333  0.08333333
   0.91666669  0.91666669  0.75000000
   0.91666669  0.08333334  0.25000000
   0.08333334  0.91666669  0.25000000
   0.75000000  0.91666669  0.91666669
   0.25000000  0.91666669  0.08333334
   0.25000000  0.08333334  0.91666669
   0.91666669  0.75000000  0.91666669
   0.08333334  0.25000000  0.91666669
   0.91666669  0.25000000  0.08333334
   0.25000000  0.25000000  0.41666666
   0.25000000  0.41666666  0.25000000
   0.41666666  0.25000000  0.25000000
   0.08333334  0.41666666  0.41666666
   0.91666669  0.58333331  0.41666666
   0.91666669  0.41666666  0.58333331
   0.08333334  0.58333331  0.58333331
   0.41666666  0.08333334  0.41666666
   0.41666666  0.91666669  0.58333331
   0.58333331  0.91666669  0.41666666
   0.58333331  0.08333334  0.58333331
   0.41666666  0.41666666  0.08333334
   0.58333331  0.41666666  0.91666669
   0.41666666  0.58333331  0.91666669
   0.58333331  0.58333331  0.08333334
   0.58333331  0.25000000  0.75000000
   0.75000000  0.08333333  0.75000000
   0.75000000  0.25000000  0.58333331
   0.25000000  0.58333331  0.75000000
   0.08333333  0.75000000  0.75000000
   0.25000000  0.75000000  0.58333331
   0.58333331  0.75000000  0.25000000
   0.75000000  0.58333331  0.25000000
   0.75000000  0.75000000  0.08333333
   0.08333334  0.41666666  0.75000000
   0.91666669  0.58333331  0.75000000
   0.91666669  0.41666666  0.25000000
   0.75000000  0.08333334  0.41666666
   0.75000000  0.91666669  0.58333331
   0.25000000  0.91666669  0.41666666
   0.41666666  0.75000000  0.08333334
   0.58333331  0.75000000  0.91666669
   0.41666666  0.25000000  0.91666669
   0.58333331  0.25000000  0.41666666
   0.75000000  0.25000000  0.91666669
   0.25000000  0.91666669  0.75000000
   0.25000000  0.41666666  0.58333331
   0.91666669  0.75000000  0.25000000
   0.41666666  0.58333331  0.25000000
   0.08333333  0.75000000  0.41666666
   0.25000000  0.58333331  0.41666666
   0.25000000  0.75000000  0.91666669
   0.41666666  0.08333333  0.75000000
   0.41666666  0.25000000  0.58333331
   0.91666669  0.25000000  0.75000000
   0.75000000  0.41666666  0.08333333
   0.58333331  0.41666666  0.25000000
   0.75000000  0.91666669  0.25000000
   0.58333331  0.91666669  0.75000000
   0.41666666  0.91666669  0.25000000
   0.91666669  0.25000000  0.41666666
   0.91666669  0.75000000  0.58333331
   0.25000000  0.41666666  0.91666669
   0.75000000  0.58333331  0.91666669
   0.41666666  0.41666666  0.41666666
   0.58333331  0.58333331  0.41666666
   0.58333331  0.41666666  0.58333331
   0.41666666  0.58333331  0.58333331
   0.58333331  0.58333331  0.75000000
   0.75000000  0.75000000  0.75000000
   0.58333331  0.75000000  0.58333331
   0.75000000  0.58333331  0.58333331
   0.41666666  0.41666666  0.75000000
   0.75000000  0.41666666  0.41666666
   0.41666666  0.75000000  0.41666666
   0.75000000  0.75000000  0.41666666
   0.75000000  0.41666666  0.75000000
   0.41666666  0.75000000  0.75000000
   0.00000000  0.00000000  0.00000000
   0.16666667  0.16666667  0.16666667
   0.00000000  0.00000000  0.33333334
   0.00000000  0.00000000  0.66666669
   0.33333334  0.00000000  0.00000000
   0.66666669  0.00000000  0.00000000
   0.00000000  0.33333334  0.00000000
   0.00000000  0.66666669  0.00000000
   0.16666667  0.16666667  0.83333331
   0.16666667  0.16666667  0.50000000
   0.16666667  0.50000000  0.16666667
   0.16666667  0.83333331  0.16666667
   0.50000000  0.16666667  0.16666667
   0.83333331  0.16666667  0.16666667
   0.00000000  0.33333334  0.33333334
   0.00000000  0.66666669  0.33333334
   0.00000000  0.33333334  0.66666669
   0.00000000  0.66666669  0.66666669
   0.33333334  0.00000000  0.33333334
   0.33333334  0.00000000  0.66666669
   0.66666669  0.00000000  0.33333334
   0.66666669  0.00000000  0.66666669
   0.33333334  0.33333334  0.00000000
   0.66666669  0.33333334  0.00000000
   0.33333334  0.66666669  0.00000000
   0.66666669  0.66666669  0.00000000
   0.50000000  0.16666667  0.83333331
   0.83333331  0.16666667  0.83333331
   0.50000000  0.16666667  0.50000000
   0.83333331  0.16666667  0.50000000
   0.16666667  0.50000000  0.83333331
   0.16666667  0.50000000  0.50000000
   0.16666667  0.83333331  0.83333331
   0.16666667  0.83333331  0.50000000
   0.50000000  0.50000000  0.16666667
   0.50000000  0.83333331  0.16666667
   0.83333331  0.50000000  0.16666667
   0.83333331  0.83333331  0.16666667
   0.33333334  0.33333334  0.33333334
   0.66666669  0.66666669  0.33333334
   0.66666669  0.33333334  0.66666669
   0.33333334  0.66666669  0.66666669
   0.50000000  0.50000000  0.83333331
   0.83333331  0.83333331  0.83333331
   0.50000000  0.83333331  0.50000000
   0.83333331  0.50000000  0.50000000
   0.33333334  0.33333334  0.66666669
   0.66666669  0.66666669  0.66666669
   0.66666669  0.33333334  0.33333334
   0.33333334  0.66666669  0.33333334
   0.50000000  0.50000000  0.50000000
   0.83333331  0.83333331  0.50000000
   0.50000000  0.83333331  0.83333331
   0.83333331  0.50000000  0.83333331
unknown system                          
           1
    12.820369   -0.000000   -0.000000
     0.000000   12.820369   -0.000000
    -0.000000   -0.000000   12.820369
   Cu   O 
 108  54
Direct configuration=     2
   0.08333334  0.08333334  0.08333334
   0.91666669  0.91666669  0.08333334
   0.91666669  0.08333334  0.91666669
   0.08333334  0.91666669  0.91666669
   0.25000000  0.25000000  0.08333333
   0.25000000  0.08333333  0.25000000
   0.08333333  0.25000000  0.25000000
   0.08333334  0.08333334  0.41666666
   0.91666669  0.91666669  0.41666666
   0.91666669  0.08333334  0.58333331
   0.08333334  0.91666669  0.58333331
   0.41666666  0.08333334  0.08333334
   0.41666666  0.91666669  0.91666669
   0.58333331  0.91666669  0.08333334
   0.58333331  0.08333334  0.91666669
   0.08333334  0.41666666  0.08333334
   0.91666669  0.41666666  0.91666669
   0.08333334  0.58333331  0.91666669
   0.91666669  0.58333331  0.08333334
   0.25000000  0.25000000  0.75000000
   0.08333333  0.08333333  0.75000000
   0.25000000  0.08333333  0.58333331
   0.08333333  0.25000000  0.58333331
   0.25000000  0.58333331  0.08333333
   0.08333333  0.58333331  0.25000000
   0.08333333  0.75000000  0.08333333
   0.25000000  0.75000000  0.25000000
   0.58333331  0.25000000  0.08333333
   0.58333331  0.08333333  0.25000000
   0.75000000  0.25000000  0.25000000
   0.75000000  0.08333333  0.08333333
   0.91666669  0.91666669  0.75000000
   0.91666669  0.08333334  0.25000000
   0.08333334  0.91666669  0.25000000
   0.75000000  0.91666669  0.91666669
   0.25000000  0.91666669  0.08333334
   0.25000000  0.08333334  0.91666669
   0.91666669  0.75000000  0.91666669
   0.08333334  0.25000000  0.91666669
   0.91666669  0.25000000  0.08333334
   0.25000000  0.25000000  0.41666666
   0.25000000  0.41666666  0.25000000
   0.41666666  0.25000000  0.25000000
   0.08333334  0.41666666  0.41666666
   0.91666669  0.58333331  0.41666666
   0.91666669  0.41666666  0.58333331
   0.08333334  0.58333331  0.58333331
   0.41666666  0.08333334  0.41666666
   0.41666666  0.91666669  0.58333331
   0.58333331  0.91666669  0.41666666
   0.58333331  0.08333334  0.58333331
   0.41666666  0.41666666  0.08333334
   0.58333331  0.41666666  0.91666669
   0.41666666  0.58333331  0.91666669
   0.58333331  0.58333331  0.08333334
   0.58333331  0.25000000  0.75000000
   0.75000000  0.08333333  0.75000000
   0.75000000  0.25000000  0.58333331
   0.25000000  0.58333331  0.75000000
   0.08333333  0.75000000  0.75000000
   0.25000000  0.75000000  0.58333331
   0.58333331  0.75000000  0.25000000
   0.75000000  0.58333331  0.25000000
   0.75000000  0.75000000  0.08333333
   0.08333334  0.41666666  0.75000000
   0.91666669  0.58333331  0.75000000
   0.91666669  0.41666666  0.25000000
   0.75000000  0.08333334  0.41666666
   0.75000000  0.91666669  0.58333331
   0.25000000  0.91666669  0.41666666
   0.41666666  0.75000000  0.08333334
   0.58333331  0.75000000  0.91666669
   0.41666666  0.25000000  0.91666669
   0.58333331  0.25000000  0.41666666
   0.75000000  0.25000000  0.91666669
   0.25000000  0.91666669  0.75000000
   0.25000000  0.41666666  0.58333331
   0.91666669  0.75000000  0.25000000
   0.41666666  0.58333331  0.25000000
   0.08333333  0.75000000  0.41666666
   0.25000000  0.58333331  0.41666666
   0.25000000  0.75000000  0.91666669
   0.41666666  0.08333333  0.75000000
   0.41666666  0.25000000  0.58333331
   0.91666669  0.25000000  0.75000000
   0.75000000  0.41666666  0.08333333
   0.58333331  0.41666666  0.25000000
   0.75000000  0.91666669  0.25000000
   0.58333331  0.91666669  0.75000000
   0.41666666  0.91666669  0.25000000
   0.91666669  0.25000000  0.41666666
   0.91666669  0.75000000  0.58333331
   0.25000000  0.41666666  0.91666669
   0.75000000  0.58333331  0.91666669
   0.41666666  0.41666666  0.41666666
   0.58333331  0.58333331  0.41666666
   0.58333331  0.41666666  0.58333331
   0.41666666  0.58333331  0.58333331
   0.58333331  0.58333331  0.75000000
   0.75000000  0.75000000  0.75000000
   0.58333331  0.75000000  0.58333331
   0.75000000  0.58333331  0.58333331
   0.41666666  0.41666666  0.75000000
   0.75000000  0.41666666  0.41666666
   0.41666666  0.75000000  0.41666666
   0.75000000  0.75000000  0.41666666
   0.75000000  0.41666666  0.75000000
   0.41666666  0.75000000  0.75000000
  -0.00000000 -0.00000000  0.00000000
   0.16666667  0.16666667  0.16666667
  -0.00000000 -0.00000000  0.33333334
  -0.00000000 -0.00000000  0.66666669
   0.33333334 -0.00000000 -0.00000000
   0.66666669  0.00000000 -0.00000000
  -0.00000000  0.33333334 -0.00000000
  -0.00000000  0.66666669  0.00000000
   0.16666667  0.16666667  0.83333331
   0.16666667  0.16666667  0.50000000
   0.16666667  0.50000000  0.16666667
   0.16666667  0.83333331  0.16666667
   0.50000000  0.16666667  0.16666667
   0.83333331  0.16666667  0.16666667
  -0.00000000  0.33333334  0.33333334
  -0.00000000  0.66666669  0.33333334
  -0.00000000  0.33333334  0.66666669
  -0.00000000  0.66666669  0.66666669
   0.33333334  0.00000000  0.33333334
   0.33333334 -0.00000000  0.66666669
   0.66666669  0.00000000  0.33333334
   0.66666669  0.00000000  0.66666669
   0.33333334  0.33333334 -0.00000000
   0.66666669  0.33333334 -0.00000000
   0.33333334  0.66666669 -0.00000000
   0.66666669  0.66666669 -0.00000000
   0.50000000  0.16666667  0.83333331
   0.83333331  0.16666667  0.83333331
   0.50000000  0.16666667  0.50000000
   0.83333331  0.16666667  0.50000000
   0.16666667  0.50000000  0.83333331
   0.16666667  0.50000000  0.50000000
   0.16666667  0.83333331  0.83333331
   0.16666667  0.83333331  0.50000000
   0.50000000  0.50000000  0.16666667
   0.50000000  0.83333331  0.16666667
   0.83333331  0.50000000  0.16666667
   0.83333331  0.83333331  0.16666667
   0.33333334  0.33333334  0.33333334
   0.66666669  0.66666669  0.33333334
   0.66666669  0.33333334  0.66666669
   0.33333334  0.66666669  0.66666669
   0.50000000  0.50000000  0.83333331
   0.83333331  0.83333331  0.83333331
   0.50000000  0.83333331  0.50000000
   0.83333331  0.50000000  0.50000000
   0.33333334  0.33333334  0.66666669
   0.66666669  0.66666669  0.66666669
   0.66666669  0.33333334  0.33333334
   0.33333334  0.66666669  0.33333334
   0.50000000  0.50000000  0.50000000
   0.83333331  0.83333331  0.50000000
   0.50000000  0.83333331  0.83333331
   0.83333331  0.50000000  0.83333331
unknown system                          
           1
    12.820369   -0.000000   -0.000000
     0.000000   12.820369   -0.000000
    -0.000000   -0.000000   12.820369
   Cu   O 
 108  54
Direct configuration=     3
   0.08333334  0.08333334  0.08333334
   0.91666669  0.91666669  0.08333334
   0.91666669  0.08333334  0.91666669
   0.08333334  0.91666669  0.91666669
   0.25000000  0.25000000  0.08333333
   0.25000000  0.08333333  0.25000000
   0.08333333  0.25000000  0.25000000
   0.08333334  0.08333334  0.41666666
   0.91666669  0.91666669  0.41666666
   0.91666669  0.08333334  0.58333331
   0.08333334  0.91666669  0.58333331
   0.41666666  0.08333334  0.08333334
   0.41666666  0.91666669  0.91666669
   0.58333331  0.91666669  0.08333334
   0.58333331  0.08333334  0.91666669
   0.08333334  0.41666666  0.08333334
   0.91666669  0.41666666  0.91666669
   0.08333334  0.58333331  0.91666669
   0.91666669  0.58333331  0.08333334
   0.25000000  0.25000000  0.75000000
   0.08333333  0.08333333  0.75000000
   0.25000000  0.08333333  0.58333331
   0.08333333  0.25000000  0.58333331
   0.25000000  0.58333331  0.08333333
   0.08333333  0.58333331  0.25000000
   0.08333333  0.75000000  0.08333333
   0.25000000  0.75000000  0.25000000
   0.58333331  0.25000000  0.08333333
   0.58333331  0.08333333  0.25000000
   0.75000000  0.25000000  0.25000000
   0.75000000  0.08333333  0.08333333
   0.91666669  0.91666669  0.75000000
   0.91666669  0.08333334  0.25000000
   0.08333334  0.91666669  0.25000000
   0.75000000  0.91666669  0.91666669
   0.25000000  0.91666669  0.08333334
   0.25000000  0.08333334  0.91666669
   0.91666669  0.75000000  0.91666669
   0.08333334  0.25000000  0.91666669
   0.91666669  0.25000000  0.08333334
   0.25000000  0.25000000  0.41666666
   0.25000000  0.41666666  0.25000000
   0.41666666  0.25000000  0.25000000
   0.08333334  0.41666666  0.41666666
   0.91666669  0.58333331  0.41666666
   0.91666669  0.41666666  0.58333331
   0.08333334  0.58333331  0.58333331
   0.41666666  0.08333334  0.41666666
   0.41666666  0.91666669  0.58333331
   0.58333331  0.91666669  0.41666666
   0.58333331  0.08333334  0.58333331
   0.41666666  0.41666666  0.08333334
   0.58333331  0.41666666  0.91666669
   0.41666666  0.58333331  0.91666669
   0.58333331  0.58333331  0.08333334
   0.58333331  0.25000000  0.75000000
   0.75000000  0.08333333  0.75000000
   0.75000000  0.25000000  0.58333331
   0.25000000  0.58333331  0.75000000
   0.08333333  0.75000000  0.75000000
   0.25000000  0.75000000  0.58333331
   0.58333331  0.75000000  0.25000000
   0.75000000  0.58333331  0.25000000
   0.75000000  0.75000000  0.08333333
   0.08333334  0.41666666  0.75000000
   0.91666669  0.58333331  0.75000000
   0.91666669  0.41666666  0.25000000
   0.75000000  0.08333334  0.41666666
   0.75000000  0.91666669  0.58333331
   0.25000000  0.91666669  0.41666666
   0.41666666  0.75000000  0.08333334
   0.58333331  0.75000000  0.91666669
   0.41666666  0.25000000  0.91666669
   0.58333331  0.25000000  0.41666666
   0.75000000  0.25000000  0.91666669
   0.25000000  0.91666669  0.75000000
   0.25000000  0.41666666  0.58333331
   0.91666669  0.75000000  0.25000000
   0.41666666  0.58333331  0.25000000
   0.08333333  0.75000000  0.41666666
   0.25000000  0.58333331  0.41666666
   0.25000000  0.75000000  0.91666669
   0.41666666  0.08333333  0.75000000
   0.41666666  0.25000000  0.58333331
   0.91666669  0.25000000  0.75000000
   0.75000000  0.41666666  0.08333333
   0.58333331  0.41666666  0.25000000
   0.75000000  0.91666669  0.25000000
   0.58333331  0.91666669  0.75000000
   0.41666666  0.91666669  0.25000000
   0.91666669  0.25000000  0.41666666
   0.91666669  0.75000000  0.58333331
   0.25000000  0.41666666  0.91666669
   0.75000000  0.58333331  0.91666669
   0.41666666  0.41666666  0.41666666
   0.58333331  0.58333331  0.41666666
   0.58333331  0.41666666  0.58333331
   0.41666666  0.58333331  0.58333331
   0.58333331  0.58333331  0.75000000
   0.75000000  0.75000000  0.75000000
   0.58333331  0.75000000  0.58333331
   0.75000000  0.58333331  0.58333331
   0.41666666  0.41666666  0.75000000
   0.75000000  0.41666666  0.41666666
   0.41666666  0.75000000  0.41666666
   0.75000000  0.75000000  0.41666666
   0.75000000  0.41666666  0.75000000
   0.41666666  0.75000000  0.75000000
  -0.00000000 -0.00000000 -0.00000000
   0.16666667  0.16666667  0.16666667
  -0.00000000 -0.00000000  0.33333334
  -0.00000000 -0.00000000  0.66666669
   0.33333334 -0.00000000 -0.00000000
   0.66666669 -0.00000000 -0.00000000
  -0.00000000  0.33333334 -0.00000000
  -0.00000000  0.66666669 -0.00000000
   0.16666667  0.16666667  0.83333331
   0.16666667  0.16666667  0.50000000
   0.16666667  0.50000000  0.16666667
   0.16666667  0.83333331  0.16666667
   0.50000000  0.16666667  0.16666667
   0.83333331  0.16666667  0.16666667
  -0.00000000  0.33333334  0.33333334
  -0.00000000  0.66666669  0.33333334
  -0.00000000  0.33333334  0.66666669
  -0.00000000  0.66666669  0.66666669
   0.33333334 -0.00000000  0.33333334
   0.33333334 -0.00000000  0.66666669
   0.66666669 -0.00000000  0.33333334
   0.66666669 -0.00000000  0.66666669
   0.33333334  0.33333334 -0.00000000
   0.66666669  0.33333334 -0.00000000
   0.33333334  0.66666669 -0.00000000
   0.66666669  0.66666669 -0.00000000
   0.50000000  0.16666667  0.83333331
   0.83333331  0.16666667  0.83333331
   0.50000000  0.16666667  0.50000000
   0.83333331  0.16666667  0.50000000
   0.16666667  0.50000000  0.83333331
   0.16666667  0.50000000  0.50000000
   0.16666667  0.83333331  0.83333331
   0.16666667  0.83333331  0.50000000
   0.50000000  0.50000000  0.16666667
   0.50000000  0.83333331  0.16666667
   0.83333331  0.50000000  0.16666667
   0.83333331  0.83333331  0.16666667
   0.33333334  0.33333334  0.33333334
   0.66666669  0.66666669  0.33333334
   0.66666669  0.33333334  0.66666669
   0.33333334  0.66666669  0.66666669
   0.50000000  0.50000000  0.83333331
   0.83333331  0.83333331  0.83333331
   0.50000000  0.83333331  0.50000000
   0.83333331  0.50000000  0.50000000
   0.33333334  0.33333334  0.66666669
   0.66666669  0.66666669  0.66666669
   0.66666669  0.33333334  0.33333334
   0.33333334  0.66666669  0.33333334
   0.50000000  0.50000000  0.50000000
   0.83333331  0.83333331  0.50000000
   0.50000000  0.83333331  0.83333331
   0.83333331  0.50000000  0.83333331
